
     Program PWSCF v.7.1 starts on 14Oct2023 at 15:18:21 

     This program is part of the open-source Quantum ESPRESSO suite
     for quantum simulation of materials; please cite
         "P. Giannozzi et al., J. Phys.:Condens. Matter 21 395502 (2009);
         "P. Giannozzi et al., J. Phys.:Condens. Matter 29 465901 (2017);
         "P. Giannozzi et al., J. Chem. Phys. 152 154105 (2020);
          URL http://www.quantum-espresso.org", 
     in publications or presentations arising from this work. More details at
     http://www.quantum-espresso.org/quote

     Parallel version (MPI & OpenMP), running on      64 processor cores
     Number of MPI processes:                64
     Threads/MPI process:                     1

     MPI processes distributed on     1 nodes
     230558 MiB available memory on the printing compute node when the environment starts

     Reading input from fe.in

     Current dimensions of program PWSCF are:
     Max number of different atomic species (ntypx) = 10
     Max number of k-points (npk) =  40000
     Max angular momentum in pseudopotentials (lmaxx) =  4

     Atomic positions and unit cell read from directory:
     /home/ftanzim/Fe-qe/out/fe.save/


     Fixed quantization axis for GGA:     0.000000    0.000000    1.000000

     K-points division:     npool     =       8
     R & G space division:  proc/nbgrp/npool/nimage =       8
     Subspace diagonalization in iterative solution of the eigenvalue problem:
     a serial algorithm will be used


     Parallelization info
     --------------------
     sticks:   dense  smooth     PW     G-vecs:    dense   smooth      PW
     Min         172      58     18                 4069      791     144
     Max         173      59     19                 4071      793     145
     Sum        1383     467    151                32565     6339    1157

     Using Slab Decomposition



     bravais-lattice index     =            3
     lattice parameter (alat)  =       5.3900  a.u.
     unit-cell volume          =      78.2954 (a.u.)^3
     number of atoms/cell      =            1
     number of atomic types    =            1
     number of electrons       =        16.00
     number of Kohn-Sham states=           24
     kinetic-energy cutoff     =      70.0000  Ry
     charge density cutoff     =     850.0000  Ry
     Exchange-correlation= PBESOL
                           (   1   4  10   8   0   0   0)
     Noncollinear calculation with spin-orbit


     celldm(1)=   5.390000  celldm(2)=   0.000000  celldm(3)=   0.000000
     celldm(4)=   0.000000  celldm(5)=   0.000000  celldm(6)=   0.000000

     crystal axes: (cart. coord. in units of alat)
               a(1) = (   0.500000   0.500000   0.500000 )  
               a(2) = (  -0.500000   0.500000   0.500000 )  
               a(3) = (  -0.500000  -0.500000   0.500000 )  

     reciprocal axes: (cart. coord. in units 2 pi/alat)
               b(1) = (  1.000000  0.000000  1.000000 )  
               b(2) = ( -1.000000  1.000000  0.000000 )  
               b(3) = (  0.000000 -1.000000  1.000000 )  


     PseudoPot. # 1 for Fe read from file:
     /home/ftanzim/Fe-qe/pseudo/Fe.upf
     MD5 check sum: dda23a597ffcf8387eb3bda42cdb7e30
     Pseudo is Norm-conserving + core correction, Zval = 16.0
     Generated using ONCVPSP code by D. R. Hamann
     Using radial grid of 1426 points, 10 beta functions with: 
                l(1) =   0
                l(2) =   0
                l(3) =   1
                l(4) =   1
                l(5) =   1
                l(6) =   1
                l(7) =   2
                l(8) =   2
                l(9) =   2
               l(10) =   2

     atomic species   valence    mass     pseudopotential
        Fe            16.00     1.00000     Fe( 1.00)

     16 Sym. Ops., with inversion, found


                                    s                        frac. trans.

      isym =  1     identity                                     

 Time Reversal            0
 cryst.   s( 1) = (     1          0          0      )
                  (     0          1          0      )
                  (     0          0          1      )

 cart.    s( 1) = (  1.0000000  0.0000000  0.0000000 )
                  (  0.0000000  1.0000000  0.0000000 )
                  (  0.0000000  0.0000000  1.0000000 )


      isym =  2     180 deg rotation - cart. axis [0,0,1]        

 Time Reversal            0
 cryst.   s( 2) = (     0          0          1      )
                  (     1         -1          1      )
                  (     1          0          0      )

 cart.    s( 2) = ( -1.0000000  0.0000000  0.0000000 )
                  (  0.0000000 -1.0000000  0.0000000 )
                  (  0.0000000  0.0000000  1.0000000 )


      isym =  3     180 deg rotation - cart. axis [0,1,0]        

 Time Reversal            1
 cryst.   s( 3) = (    -1          1         -1      )
                  (     0          0         -1      )
                  (     0         -1          0      )

 cart.    s( 3) = ( -1.0000000  0.0000000  0.0000000 )
                  (  0.0000000  1.0000000  0.0000000 )
                  (  0.0000000  0.0000000 -1.0000000 )


      isym =  4     180 deg rotation - cart. axis [1,0,0]        

 Time Reversal            1
 cryst.   s( 4) = (     0         -1          0      )
                  (    -1          0          0      )
                  (    -1          1         -1      )

 cart.    s( 4) = (  1.0000000  0.0000000  0.0000000 )
                  (  0.0000000 -1.0000000  0.0000000 )
                  (  0.0000000  0.0000000 -1.0000000 )


      isym =  5     180 deg rotation - cart. axis [1,1,0]        

 Time Reversal            1
 cryst.   s( 5) = (     0          0         -1      )
                  (     0         -1          0      )
                  (    -1          0          0      )

 cart.    s( 5) = (  0.0000000  1.0000000  0.0000000 )
                  (  1.0000000  0.0000000  0.0000000 )
                  (  0.0000000  0.0000000 -1.0000000 )


      isym =  6     180 deg rotation - cart. axis [1,-1,0]       

 Time Reversal            1
 cryst.   s( 6) = (    -1          0          0      )
                  (    -1          1         -1      )
                  (     0          0         -1      )

 cart.    s( 6) = (  0.0000000 -1.0000000  0.0000000 )
                  ( -1.0000000  0.0000000  0.0000000 )
                  (  0.0000000  0.0000000 -1.0000000 )


      isym =  7      90 deg rotation - cart. axis [0,0,-1]       

 Time Reversal            0
 cryst.   s( 7) = (     1         -1          1      )
                  (     1          0          0      )
                  (     0          1          0      )

 cart.    s( 7) = (  0.0000000  1.0000000  0.0000000 )
                  ( -1.0000000  0.0000000  0.0000000 )
                  (  0.0000000  0.0000000  1.0000000 )


      isym =  8      90 deg rotation - cart. axis [0,0,1]        

 Time Reversal            0
 cryst.   s( 8) = (     0          1          0      )
                  (     0          0          1      )
                  (     1         -1          1      )

 cart.    s( 8) = (  0.0000000 -1.0000000  0.0000000 )
                  (  1.0000000  0.0000000  0.0000000 )
                  (  0.0000000  0.0000000  1.0000000 )


      isym =  9     inversion                                    

 Time Reversal            0
 cryst.   s( 9) = (    -1          0          0      )
                  (     0         -1          0      )
                  (     0          0         -1      )

 cart.    s( 9) = ( -1.0000000  0.0000000  0.0000000 )
                  (  0.0000000 -1.0000000  0.0000000 )
                  (  0.0000000  0.0000000 -1.0000000 )


      isym = 10     inv. 180 deg rotation - cart. axis [0,0,1]   

 Time Reversal            0
 cryst.   s(10) = (     0          0         -1      )
                  (    -1          1         -1      )
                  (    -1          0          0      )

 cart.    s(10) = (  1.0000000  0.0000000  0.0000000 )
                  (  0.0000000  1.0000000  0.0000000 )
                  (  0.0000000  0.0000000 -1.0000000 )


      isym = 11     inv. 180 deg rotation - cart. axis [0,1,0]   

 Time Reversal            1
 cryst.   s(11) = (     1         -1          1      )
                  (     0          0          1      )
                  (     0          1          0      )

 cart.    s(11) = (  1.0000000  0.0000000  0.0000000 )
                  (  0.0000000 -1.0000000  0.0000000 )
                  (  0.0000000  0.0000000  1.0000000 )


      isym = 12     inv. 180 deg rotation - cart. axis [1,0,0]   

 Time Reversal            1
 cryst.   s(12) = (     0          1          0      )
                  (     1          0          0      )
                  (     1         -1          1      )

 cart.    s(12) = ( -1.0000000  0.0000000  0.0000000 )
                  (  0.0000000  1.0000000  0.0000000 )
                  (  0.0000000  0.0000000  1.0000000 )


      isym = 13     inv. 180 deg rotation - cart. axis [1,1,0]   

 Time Reversal            1
 cryst.   s(13) = (     0          0          1      )
                  (     0          1          0      )
                  (     1          0          0      )

 cart.    s(13) = (  0.0000000 -1.0000000  0.0000000 )
                  ( -1.0000000  0.0000000  0.0000000 )
                  (  0.0000000  0.0000000  1.0000000 )


      isym = 14     inv. 180 deg rotation - cart. axis [1,-1,0]  

 Time Reversal            1
 cryst.   s(14) = (     1          0          0      )
                  (     1         -1          1      )
                  (     0          0          1      )

 cart.    s(14) = (  0.0000000  1.0000000  0.0000000 )
                  (  1.0000000  0.0000000  0.0000000 )
                  (  0.0000000  0.0000000  1.0000000 )


      isym = 15     inv.  90 deg rotation - cart. axis [0,0,-1]  

 Time Reversal            0
 cryst.   s(15) = (    -1          1         -1      )
                  (    -1          0          0      )
                  (     0         -1          0      )

 cart.    s(15) = (  0.0000000 -1.0000000  0.0000000 )
                  (  1.0000000  0.0000000  0.0000000 )
                  (  0.0000000  0.0000000 -1.0000000 )


      isym = 16     inv.  90 deg rotation - cart. axis [0,0,1]   

 Time Reversal            0
 cryst.   s(16) = (     0         -1          0      )
                  (     0          0         -1      )
                  (    -1          1         -1      )

 cart.    s(16) = (  0.0000000  1.0000000  0.0000000 )
                  ( -1.0000000  0.0000000  0.0000000 )
                  (  0.0000000  0.0000000 -1.0000000 )


     the magnetic double point group is D_4h(4/mmm) [C_4h (4/m) ]
     using the double point group C_4h (4/m) 
     there are 16 classes and  8 irreducible representations
     the character table:

       E     -E    C4    -C4   C2    -C2   C4^3  -C4^3 i     -i    S4^3  -S4^3
                                                                              
G_5+   1.00 -1.00  0.71 -0.71  0.00  0.00  0.71 -0.71  1.00 -1.00  0.71 -0.71
G_6+   1.00 -1.00  0.71 -0.71  0.00  0.00  0.71 -0.71  1.00 -1.00  0.71 -0.71
G_7+   1.00 -1.00 -0.71  0.71  0.00  0.00 -0.71  0.71  1.00 -1.00 -0.71  0.71
G_8+   1.00 -1.00 -0.71  0.71  0.00  0.00 -0.71  0.71  1.00 -1.00 -0.71  0.71
G_5-   1.00 -1.00  0.71 -0.71  0.00  0.00  0.71 -0.71 -1.00  1.00 -0.71  0.71
G_6-   1.00 -1.00  0.71 -0.71  0.00  0.00  0.71 -0.71 -1.00  1.00 -0.71  0.71
G_7-   1.00 -1.00 -0.71  0.71  0.00  0.00 -0.71  0.71 -1.00  1.00  0.71 -0.71
G_8-   1.00 -1.00 -0.71  0.71  0.00  0.00 -0.71  0.71 -1.00  1.00  0.71 -0.71

       s_h   -s_h  S4    -S4  
                              
G_5+   0.00  0.00  0.71 -0.71
G_6+   0.00  0.00  0.71 -0.71
G_7+   0.00  0.00 -0.71  0.71
G_8+   0.00  0.00 -0.71  0.71
G_5-   0.00  0.00 -0.71  0.71
G_6-   0.00  0.00 -0.71  0.71
G_7-   0.00  0.00  0.71 -0.71
G_8-   0.00  0.00  0.71 -0.71

     imaginary part

       E     -E    C4    -C4   C2    -C2   C4^3  -C4^3 i     -i    S4^3  -S4^3
                                                                              
G_5+   0.00  0.00  0.71 -0.71  1.00 -1.00 -0.71  0.71  0.00  0.00  0.71 -0.71
G_6+   0.00  0.00 -0.71  0.71 -1.00  1.00  0.71 -0.71  0.00  0.00 -0.71  0.71
G_7+   0.00  0.00 -0.71  0.71  1.00 -1.00  0.71 -0.71  0.00  0.00 -0.71  0.71
G_8+   0.00  0.00  0.71 -0.71 -1.00  1.00 -0.71  0.71  0.00  0.00  0.71 -0.71
G_5-   0.00  0.00  0.71 -0.71  1.00 -1.00 -0.71  0.71  0.00  0.00 -0.71  0.71
G_6-   0.00  0.00 -0.71  0.71 -1.00  1.00  0.71 -0.71  0.00  0.00  0.71 -0.71
G_7-   0.00  0.00 -0.71  0.71  1.00 -1.00  0.71 -0.71  0.00  0.00  0.71 -0.71
G_8-   0.00  0.00  0.71 -0.71 -1.00  1.00 -0.71  0.71  0.00  0.00 -0.71  0.71

       s_h   -s_h  S4    -S4  
                              
G_5+   1.00 -1.00 -0.71  0.71
G_6+  -1.00  1.00  0.71 -0.71
G_7+   1.00 -1.00  0.71 -0.71
G_8+  -1.00  1.00 -0.71  0.71
G_5-  -1.00  1.00  0.71 -0.71
G_6-   1.00 -1.00 -0.71  0.71
G_7-  -1.00  1.00 -0.71  0.71
G_8-   1.00 -1.00  0.71 -0.71

     the symmetry operations in each class and the name of the first element:

     E             1
          identity                                               
     -E           -1
          identity E                                             
     C4            4
           90 deg rotation - cart. axis [0,0,1]                  
     -C4          -4
           90 deg rotation - cart. axis [0,0,1] E                
     C2            2
          180 deg rotation - cart. axis [0,0,1]                  
     -C2          -2
          180 deg rotation - cart. axis [0,0,1] E                
     C4^3          3
           90 deg rotation - cart. axis [0,0,-1]                 
     -C4^3        -3
           90 deg rotation - cart. axis [0,0,-1] E               
     i             5
          inversion                                              
     -i           -5
          inversion E                                            
     S4^3          8
          inv.  90 deg rotation - cart. axis [0,0,1]             
     -S4^3        -8
          inv.  90 deg rotation - cart. axis [0,0,1] E           
     s_h           6
          inv. 180 deg rotation - cart. axis [0,0,1]             
     -s_h         -6
          inv. 180 deg rotation - cart. axis [0,0,1] E           
     S4            7
          inv.  90 deg rotation - cart. axis [0,0,-1]            
     -S4          -7
          inv.  90 deg rotation - cart. axis [0,0,-1] E          

   Cartesian axes

     site n.     atom                  positions (alat units)
         1           Fe  tau(   1) = (   0.0000000   0.0000000   0.0000000  )

   Crystallographic axes

     site n.     atom                  positions (cryst. coord.)
         1           Fe  tau(   1) = (  0.0000000  0.0000000  0.0000000  )

     number of k points=   171  Marzari-Vanderbilt smearing, width (Ry)=  0.0200
                       cart. coord. in units 2pi/alat
        k(    1) = (   0.0000000   0.0000000   0.0000000), wk =   0.0058480
        k(    2) = (   0.0000000   0.0250000   0.0000000), wk =   0.0058480
        k(    3) = (   0.0000000   0.0500000   0.0000000), wk =   0.0058480
        k(    4) = (   0.0000000   0.0750000   0.0000000), wk =   0.0058480
        k(    5) = (   0.0000000   0.1000000   0.0000000), wk =   0.0058480
        k(    6) = (   0.0000000   0.1250000   0.0000000), wk =   0.0058480
        k(    7) = (   0.0000000   0.1500000   0.0000000), wk =   0.0058480
        k(    8) = (   0.0000000   0.1750000   0.0000000), wk =   0.0058480
        k(    9) = (   0.0000000   0.2000000   0.0000000), wk =   0.0058480
        k(   10) = (   0.0000000   0.2250000   0.0000000), wk =   0.0058480
        k(   11) = (   0.0000000   0.2500000   0.0000000), wk =   0.0058480
        k(   12) = (   0.0000000   0.2750000   0.0000000), wk =   0.0058480
        k(   13) = (   0.0000000   0.3000000   0.0000000), wk =   0.0058480
        k(   14) = (   0.0000000   0.3250000   0.0000000), wk =   0.0058480
        k(   15) = (   0.0000000   0.3500000   0.0000000), wk =   0.0058480
        k(   16) = (   0.0000000   0.3750000   0.0000000), wk =   0.0058480
        k(   17) = (   0.0000000   0.4000000   0.0000000), wk =   0.0058480
        k(   18) = (   0.0000000   0.4250000   0.0000000), wk =   0.0058480
        k(   19) = (   0.0000000   0.4500000   0.0000000), wk =   0.0058480
        k(   20) = (   0.0000000   0.4750000   0.0000000), wk =   0.0058480
        k(   21) = (   0.0000000   0.5000000   0.0000000), wk =   0.0058480
        k(   22) = (   0.0000000   0.5250000   0.0000000), wk =   0.0058480
        k(   23) = (   0.0000000   0.5500000   0.0000000), wk =   0.0058480
        k(   24) = (   0.0000000   0.5750000   0.0000000), wk =   0.0058480
        k(   25) = (   0.0000000   0.6000000   0.0000000), wk =   0.0058480
        k(   26) = (   0.0000000   0.6250000   0.0000000), wk =   0.0058480
        k(   27) = (   0.0000000   0.6500000   0.0000000), wk =   0.0058480
        k(   28) = (   0.0000000   0.6750000   0.0000000), wk =   0.0058480
        k(   29) = (   0.0000000   0.7000000   0.0000000), wk =   0.0058480
        k(   30) = (   0.0000000   0.7250000   0.0000000), wk =   0.0058480
        k(   31) = (   0.0000000   0.7500000   0.0000000), wk =   0.0058480
        k(   32) = (   0.0000000   0.7750000   0.0000000), wk =   0.0058480
        k(   33) = (   0.0000000   0.8000000   0.0000000), wk =   0.0058480
        k(   34) = (   0.0000000   0.8250000   0.0000000), wk =   0.0058480
        k(   35) = (   0.0000000   0.8500000   0.0000000), wk =   0.0058480
        k(   36) = (   0.0000000   0.8750000   0.0000000), wk =   0.0058480
        k(   37) = (   0.0000000   0.9000000   0.0000000), wk =   0.0058480
        k(   38) = (   0.0000000   0.9250000   0.0000000), wk =   0.0058480
        k(   39) = (   0.0000000   0.9500000   0.0000000), wk =   0.0058480
        k(   40) = (   0.0000000   0.9750000   0.0000000), wk =   0.0058480
        k(   41) = (   0.0000000   1.0000000   0.0000000), wk =   0.0058480
        k(   42) = (   0.0125000   0.9875000   0.0000000), wk =   0.0058480
        k(   43) = (   0.0250000   0.9750000   0.0000000), wk =   0.0058480
        k(   44) = (   0.0375000   0.9625000   0.0000000), wk =   0.0058480
        k(   45) = (   0.0500000   0.9500000   0.0000000), wk =   0.0058480
        k(   46) = (   0.0625000   0.9375000   0.0000000), wk =   0.0058480
        k(   47) = (   0.0750000   0.9250000   0.0000000), wk =   0.0058480
        k(   48) = (   0.0875000   0.9125000   0.0000000), wk =   0.0058480
        k(   49) = (   0.1000000   0.9000000   0.0000000), wk =   0.0058480
        k(   50) = (   0.1125000   0.8875000   0.0000000), wk =   0.0058480
        k(   51) = (   0.1250000   0.8750000   0.0000000), wk =   0.0058480
        k(   52) = (   0.1375000   0.8625000   0.0000000), wk =   0.0058480
        k(   53) = (   0.1500000   0.8500000   0.0000000), wk =   0.0058480
        k(   54) = (   0.1625000   0.8375000   0.0000000), wk =   0.0058480
        k(   55) = (   0.1750000   0.8250000   0.0000000), wk =   0.0058480
        k(   56) = (   0.1875000   0.8125000   0.0000000), wk =   0.0058480
        k(   57) = (   0.2000000   0.8000000   0.0000000), wk =   0.0058480
        k(   58) = (   0.2125000   0.7875000   0.0000000), wk =   0.0058480
        k(   59) = (   0.2250000   0.7750000   0.0000000), wk =   0.0058480
        k(   60) = (   0.2375000   0.7625000   0.0000000), wk =   0.0058480
        k(   61) = (   0.2500000   0.7500000   0.0000000), wk =   0.0058480
        k(   62) = (   0.2625000   0.7375000   0.0000000), wk =   0.0058480
        k(   63) = (   0.2750000   0.7250000   0.0000000), wk =   0.0058480
        k(   64) = (   0.2875000   0.7125000   0.0000000), wk =   0.0058480
        k(   65) = (   0.3000000   0.7000000   0.0000000), wk =   0.0058480
        k(   66) = (   0.3125000   0.6875000   0.0000000), wk =   0.0058480
        k(   67) = (   0.3250000   0.6750000   0.0000000), wk =   0.0058480
        k(   68) = (   0.3375000   0.6625000   0.0000000), wk =   0.0058480
        k(   69) = (   0.3500000   0.6500000   0.0000000), wk =   0.0058480
        k(   70) = (   0.3625000   0.6375000   0.0000000), wk =   0.0058480
        k(   71) = (   0.3750000   0.6250000   0.0000000), wk =   0.0058480
        k(   72) = (   0.3875000   0.6125000   0.0000000), wk =   0.0058480
        k(   73) = (   0.4000000   0.6000000   0.0000000), wk =   0.0058480
        k(   74) = (   0.4125000   0.5875000   0.0000000), wk =   0.0058480
        k(   75) = (   0.4250000   0.5750000   0.0000000), wk =   0.0058480
        k(   76) = (   0.4375000   0.5625000   0.0000000), wk =   0.0058480
        k(   77) = (   0.4500000   0.5500000   0.0000000), wk =   0.0058480
        k(   78) = (   0.4625000   0.5375000   0.0000000), wk =   0.0058480
        k(   79) = (   0.4750000   0.5250000   0.0000000), wk =   0.0058480
        k(   80) = (   0.4875000   0.5125000   0.0000000), wk =   0.0058480
        k(   81) = (   0.5000000   0.5000000   0.0000000), wk =   0.0058480
        k(   82) = (   0.4833333   0.4833333   0.0000000), wk =   0.0058480
        k(   83) = (   0.4666667   0.4666667   0.0000000), wk =   0.0058480
        k(   84) = (   0.4500000   0.4500000   0.0000000), wk =   0.0058480
        k(   85) = (   0.4333333   0.4333333   0.0000000), wk =   0.0058480
        k(   86) = (   0.4166667   0.4166667   0.0000000), wk =   0.0058480
        k(   87) = (   0.4000000   0.4000000   0.0000000), wk =   0.0058480
        k(   88) = (   0.3833333   0.3833333   0.0000000), wk =   0.0058480
        k(   89) = (   0.3666667   0.3666667   0.0000000), wk =   0.0058480
        k(   90) = (   0.3500000   0.3500000   0.0000000), wk =   0.0058480
        k(   91) = (   0.3333333   0.3333333   0.0000000), wk =   0.0058480
        k(   92) = (   0.3166667   0.3166667   0.0000000), wk =   0.0058480
        k(   93) = (   0.3000000   0.3000000   0.0000000), wk =   0.0058480
        k(   94) = (   0.2833333   0.2833333   0.0000000), wk =   0.0058480
        k(   95) = (   0.2666667   0.2666667   0.0000000), wk =   0.0058480
        k(   96) = (   0.2500000   0.2500000   0.0000000), wk =   0.0058480
        k(   97) = (   0.2333333   0.2333333   0.0000000), wk =   0.0058480
        k(   98) = (   0.2166667   0.2166667   0.0000000), wk =   0.0058480
        k(   99) = (   0.2000000   0.2000000   0.0000000), wk =   0.0058480
        k(  100) = (   0.1833333   0.1833333   0.0000000), wk =   0.0058480
        k(  101) = (   0.1666667   0.1666667   0.0000000), wk =   0.0058480
        k(  102) = (   0.1500000   0.1500000   0.0000000), wk =   0.0058480
        k(  103) = (   0.1333333   0.1333333   0.0000000), wk =   0.0058480
        k(  104) = (   0.1166667   0.1166667   0.0000000), wk =   0.0058480
        k(  105) = (   0.1000000   0.1000000   0.0000000), wk =   0.0058480
        k(  106) = (   0.0833333   0.0833333   0.0000000), wk =   0.0058480
        k(  107) = (   0.0666667   0.0666667   0.0000000), wk =   0.0058480
        k(  108) = (   0.0500000   0.0500000   0.0000000), wk =   0.0058480
        k(  109) = (   0.0333333   0.0333333   0.0000000), wk =   0.0058480
        k(  110) = (   0.0166667   0.0166667   0.0000000), wk =   0.0058480
        k(  111) = (   0.0000000   0.0000000   0.0000000), wk =   0.0058480
        k(  112) = (   0.0166667   0.0166667   0.0166667), wk =   0.0058480
        k(  113) = (   0.0333333   0.0333333   0.0333333), wk =   0.0058480
        k(  114) = (   0.0500000   0.0500000   0.0500000), wk =   0.0058480
        k(  115) = (   0.0666667   0.0666667   0.0666667), wk =   0.0058480
        k(  116) = (   0.0833333   0.0833333   0.0833333), wk =   0.0058480
        k(  117) = (   0.1000000   0.1000000   0.1000000), wk =   0.0058480
        k(  118) = (   0.1166667   0.1166667   0.1166667), wk =   0.0058480
        k(  119) = (   0.1333333   0.1333333   0.1333333), wk =   0.0058480
        k(  120) = (   0.1500000   0.1500000   0.1500000), wk =   0.0058480
        k(  121) = (   0.1666667   0.1666667   0.1666667), wk =   0.0058480
        k(  122) = (   0.1833333   0.1833333   0.1833333), wk =   0.0058480
        k(  123) = (   0.2000000   0.2000000   0.2000000), wk =   0.0058480
        k(  124) = (   0.2166667   0.2166667   0.2166667), wk =   0.0058480
        k(  125) = (   0.2333333   0.2333333   0.2333333), wk =   0.0058480
        k(  126) = (   0.2500000   0.2500000   0.2500000), wk =   0.0058480
        k(  127) = (   0.2666667   0.2666667   0.2666667), wk =   0.0058480
        k(  128) = (   0.2833333   0.2833333   0.2833333), wk =   0.0058480
        k(  129) = (   0.3000000   0.3000000   0.3000000), wk =   0.0058480
        k(  130) = (   0.3166667   0.3166667   0.3166667), wk =   0.0058480
        k(  131) = (   0.3333333   0.3333333   0.3333333), wk =   0.0058480
        k(  132) = (   0.3500000   0.3500000   0.3500000), wk =   0.0058480
        k(  133) = (   0.3666667   0.3666667   0.3666667), wk =   0.0058480
        k(  134) = (   0.3833333   0.3833333   0.3833333), wk =   0.0058480
        k(  135) = (   0.4000000   0.4000000   0.4000000), wk =   0.0058480
        k(  136) = (   0.4166667   0.4166667   0.4166667), wk =   0.0058480
        k(  137) = (   0.4333333   0.4333333   0.4333333), wk =   0.0058480
        k(  138) = (   0.4500000   0.4500000   0.4500000), wk =   0.0058480
        k(  139) = (   0.4666667   0.4666667   0.4666667), wk =   0.0058480
        k(  140) = (   0.4833333   0.4833333   0.4833333), wk =   0.0058480
        k(  141) = (   0.5000000   0.5000000   0.5000000), wk =   0.0058480
        k(  142) = (   0.4833333   0.5166667   0.4833333), wk =   0.0058480
        k(  143) = (   0.4666667   0.5333333   0.4666667), wk =   0.0058480
        k(  144) = (   0.4500000   0.5500000   0.4500000), wk =   0.0058480
        k(  145) = (   0.4333333   0.5666667   0.4333333), wk =   0.0058480
        k(  146) = (   0.4166667   0.5833333   0.4166667), wk =   0.0058480
        k(  147) = (   0.4000000   0.6000000   0.4000000), wk =   0.0058480
        k(  148) = (   0.3833333   0.6166667   0.3833333), wk =   0.0058480
        k(  149) = (   0.3666667   0.6333333   0.3666667), wk =   0.0058480
        k(  150) = (   0.3500000   0.6500000   0.3500000), wk =   0.0058480
        k(  151) = (   0.3333333   0.6666667   0.3333333), wk =   0.0058480
        k(  152) = (   0.3166667   0.6833333   0.3166667), wk =   0.0058480
        k(  153) = (   0.3000000   0.7000000   0.3000000), wk =   0.0058480
        k(  154) = (   0.2833333   0.7166667   0.2833333), wk =   0.0058480
        k(  155) = (   0.2666667   0.7333333   0.2666667), wk =   0.0058480
        k(  156) = (   0.2500000   0.7500000   0.2500000), wk =   0.0058480
        k(  157) = (   0.2333333   0.7666667   0.2333333), wk =   0.0058480
        k(  158) = (   0.2166667   0.7833333   0.2166667), wk =   0.0058480
        k(  159) = (   0.2000000   0.8000000   0.2000000), wk =   0.0058480
        k(  160) = (   0.1833333   0.8166667   0.1833333), wk =   0.0058480
        k(  161) = (   0.1666667   0.8333333   0.1666667), wk =   0.0058480
        k(  162) = (   0.1500000   0.8500000   0.1500000), wk =   0.0058480
        k(  163) = (   0.1333333   0.8666667   0.1333333), wk =   0.0058480
        k(  164) = (   0.1166667   0.8833333   0.1166667), wk =   0.0058480
        k(  165) = (   0.1000000   0.9000000   0.1000000), wk =   0.0058480
        k(  166) = (   0.0833333   0.9166667   0.0833333), wk =   0.0058480
        k(  167) = (   0.0666667   0.9333333   0.0666667), wk =   0.0058480
        k(  168) = (   0.0500000   0.9500000   0.0500000), wk =   0.0058480
        k(  169) = (   0.0333333   0.9666667   0.0333333), wk =   0.0058480
        k(  170) = (   0.0166667   0.9833333   0.0166667), wk =   0.0058480
        k(  171) = (   0.0000000   1.0000000   0.0000000), wk =   0.0058480

                       cryst. coord.
        k(    1) = (   0.0000000   0.0000000   0.0000000), wk =   0.0058480
        k(    2) = (   0.0125000   0.0125000  -0.0125000), wk =   0.0058480
        k(    3) = (   0.0250000   0.0250000  -0.0250000), wk =   0.0058480
        k(    4) = (   0.0375000   0.0375000  -0.0375000), wk =   0.0058480
        k(    5) = (   0.0500000   0.0500000  -0.0500000), wk =   0.0058480
        k(    6) = (   0.0625000   0.0625000  -0.0625000), wk =   0.0058480
        k(    7) = (   0.0750000   0.0750000  -0.0750000), wk =   0.0058480
        k(    8) = (   0.0875000   0.0875000  -0.0875000), wk =   0.0058480
        k(    9) = (   0.1000000   0.1000000  -0.1000000), wk =   0.0058480
        k(   10) = (   0.1125000   0.1125000  -0.1125000), wk =   0.0058480
        k(   11) = (   0.1250000   0.1250000  -0.1250000), wk =   0.0058480
        k(   12) = (   0.1375000   0.1375000  -0.1375000), wk =   0.0058480
        k(   13) = (   0.1500000   0.1500000  -0.1500000), wk =   0.0058480
        k(   14) = (   0.1625000   0.1625000  -0.1625000), wk =   0.0058480
        k(   15) = (   0.1750000   0.1750000  -0.1750000), wk =   0.0058480
        k(   16) = (   0.1875000   0.1875000  -0.1875000), wk =   0.0058480
        k(   17) = (   0.2000000   0.2000000  -0.2000000), wk =   0.0058480
        k(   18) = (   0.2125000   0.2125000  -0.2125000), wk =   0.0058480
        k(   19) = (   0.2250000   0.2250000  -0.2250000), wk =   0.0058480
        k(   20) = (   0.2375000   0.2375000  -0.2375000), wk =   0.0058480
        k(   21) = (   0.2500000   0.2500000  -0.2500000), wk =   0.0058480
        k(   22) = (   0.2625000   0.2625000  -0.2625000), wk =   0.0058480
        k(   23) = (   0.2750000   0.2750000  -0.2750000), wk =   0.0058480
        k(   24) = (   0.2875000   0.2875000  -0.2875000), wk =   0.0058480
        k(   25) = (   0.3000000   0.3000000  -0.3000000), wk =   0.0058480
        k(   26) = (   0.3125000   0.3125000  -0.3125000), wk =   0.0058480
        k(   27) = (   0.3250000   0.3250000  -0.3250000), wk =   0.0058480
        k(   28) = (   0.3375000   0.3375000  -0.3375000), wk =   0.0058480
        k(   29) = (   0.3500000   0.3500000  -0.3500000), wk =   0.0058480
        k(   30) = (   0.3625000   0.3625000  -0.3625000), wk =   0.0058480
        k(   31) = (   0.3750000   0.3750000  -0.3750000), wk =   0.0058480
        k(   32) = (   0.3875000   0.3875000  -0.3875000), wk =   0.0058480
        k(   33) = (   0.4000000   0.4000000  -0.4000000), wk =   0.0058480
        k(   34) = (   0.4125000   0.4125000  -0.4125000), wk =   0.0058480
        k(   35) = (   0.4250000   0.4250000  -0.4250000), wk =   0.0058480
        k(   36) = (   0.4375000   0.4375000  -0.4375000), wk =   0.0058480
        k(   37) = (   0.4500000   0.4500000  -0.4500000), wk =   0.0058480
        k(   38) = (   0.4625000   0.4625000  -0.4625000), wk =   0.0058480
        k(   39) = (   0.4750000   0.4750000  -0.4750000), wk =   0.0058480
        k(   40) = (   0.4875000   0.4875000  -0.4875000), wk =   0.0058480
        k(   41) = (   0.5000000   0.5000000  -0.5000000), wk =   0.0058480
        k(   42) = (   0.5000000   0.4875000  -0.5000000), wk =   0.0058480
        k(   43) = (   0.5000000   0.4750000  -0.5000000), wk =   0.0058480
        k(   44) = (   0.5000000   0.4625000  -0.5000000), wk =   0.0058480
        k(   45) = (   0.5000000   0.4500000  -0.5000000), wk =   0.0058480
        k(   46) = (   0.5000000   0.4375000  -0.5000000), wk =   0.0058480
        k(   47) = (   0.5000000   0.4250000  -0.5000000), wk =   0.0058480
        k(   48) = (   0.5000000   0.4125000  -0.5000000), wk =   0.0058480
        k(   49) = (   0.5000000   0.4000000  -0.5000000), wk =   0.0058480
        k(   50) = (   0.5000000   0.3875000  -0.5000000), wk =   0.0058480
        k(   51) = (   0.5000000   0.3750000  -0.5000000), wk =   0.0058480
        k(   52) = (   0.5000000   0.3625000  -0.5000000), wk =   0.0058480
        k(   53) = (   0.5000000   0.3500000  -0.5000000), wk =   0.0058480
        k(   54) = (   0.5000000   0.3375000  -0.5000000), wk =   0.0058480
        k(   55) = (   0.5000000   0.3250000  -0.5000000), wk =   0.0058480
        k(   56) = (   0.5000000   0.3125000  -0.5000000), wk =   0.0058480
        k(   57) = (   0.5000000   0.3000000  -0.5000000), wk =   0.0058480
        k(   58) = (   0.5000000   0.2875000  -0.5000000), wk =   0.0058480
        k(   59) = (   0.5000000   0.2750000  -0.5000000), wk =   0.0058480
        k(   60) = (   0.5000000   0.2625000  -0.5000000), wk =   0.0058480
        k(   61) = (   0.5000000   0.2500000  -0.5000000), wk =   0.0058480
        k(   62) = (   0.5000000   0.2375000  -0.5000000), wk =   0.0058480
        k(   63) = (   0.5000000   0.2250000  -0.5000000), wk =   0.0058480
        k(   64) = (   0.5000000   0.2125000  -0.5000000), wk =   0.0058480
        k(   65) = (   0.5000000   0.2000000  -0.5000000), wk =   0.0058480
        k(   66) = (   0.5000000   0.1875000  -0.5000000), wk =   0.0058480
        k(   67) = (   0.5000000   0.1750000  -0.5000000), wk =   0.0058480
        k(   68) = (   0.5000000   0.1625000  -0.5000000), wk =   0.0058480
        k(   69) = (   0.5000000   0.1500000  -0.5000000), wk =   0.0058480
        k(   70) = (   0.5000000   0.1375000  -0.5000000), wk =   0.0058480
        k(   71) = (   0.5000000   0.1250000  -0.5000000), wk =   0.0058480
        k(   72) = (   0.5000000   0.1125000  -0.5000000), wk =   0.0058480
        k(   73) = (   0.5000000   0.1000000  -0.5000000), wk =   0.0058480
        k(   74) = (   0.5000000   0.0875000  -0.5000000), wk =   0.0058480
        k(   75) = (   0.5000000   0.0750000  -0.5000000), wk =   0.0058480
        k(   76) = (   0.5000000   0.0625000  -0.5000000), wk =   0.0058480
        k(   77) = (   0.5000000   0.0500000  -0.5000000), wk =   0.0058480
        k(   78) = (   0.5000000   0.0375000  -0.5000000), wk =   0.0058480
        k(   79) = (   0.5000000   0.0250000  -0.5000000), wk =   0.0058480
        k(   80) = (   0.5000000   0.0125000  -0.5000000), wk =   0.0058480
        k(   81) = (   0.5000000   0.0000000  -0.5000000), wk =   0.0058480
        k(   82) = (   0.4833333   0.0000000  -0.4833333), wk =   0.0058480
        k(   83) = (   0.4666667   0.0000000  -0.4666667), wk =   0.0058480
        k(   84) = (   0.4500000   0.0000000  -0.4500000), wk =   0.0058480
        k(   85) = (   0.4333333   0.0000000  -0.4333333), wk =   0.0058480
        k(   86) = (   0.4166667   0.0000000  -0.4166667), wk =   0.0058480
        k(   87) = (   0.4000000   0.0000000  -0.4000000), wk =   0.0058480
        k(   88) = (   0.3833333   0.0000000  -0.3833333), wk =   0.0058480
        k(   89) = (   0.3666667   0.0000000  -0.3666667), wk =   0.0058480
        k(   90) = (   0.3500000   0.0000000  -0.3500000), wk =   0.0058480
        k(   91) = (   0.3333333   0.0000000  -0.3333333), wk =   0.0058480
        k(   92) = (   0.3166667   0.0000000  -0.3166667), wk =   0.0058480
        k(   93) = (   0.3000000   0.0000000  -0.3000000), wk =   0.0058480
        k(   94) = (   0.2833333   0.0000000  -0.2833333), wk =   0.0058480
        k(   95) = (   0.2666667   0.0000000  -0.2666667), wk =   0.0058480
        k(   96) = (   0.2500000   0.0000000  -0.2500000), wk =   0.0058480
        k(   97) = (   0.2333333   0.0000000  -0.2333333), wk =   0.0058480
        k(   98) = (   0.2166667   0.0000000  -0.2166667), wk =   0.0058480
        k(   99) = (   0.2000000   0.0000000  -0.2000000), wk =   0.0058480
        k(  100) = (   0.1833333   0.0000000  -0.1833333), wk =   0.0058480
        k(  101) = (   0.1666667   0.0000000  -0.1666667), wk =   0.0058480
        k(  102) = (   0.1500000   0.0000000  -0.1500000), wk =   0.0058480
        k(  103) = (   0.1333333   0.0000000  -0.1333333), wk =   0.0058480
        k(  104) = (   0.1166667   0.0000000  -0.1166667), wk =   0.0058480
        k(  105) = (   0.1000000   0.0000000  -0.1000000), wk =   0.0058480
        k(  106) = (   0.0833333   0.0000000  -0.0833333), wk =   0.0058480
        k(  107) = (   0.0666667   0.0000000  -0.0666667), wk =   0.0058480
        k(  108) = (   0.0500000   0.0000000  -0.0500000), wk =   0.0058480
        k(  109) = (   0.0333333   0.0000000  -0.0333333), wk =   0.0058480
        k(  110) = (   0.0166667   0.0000000  -0.0166667), wk =   0.0058480
        k(  111) = (   0.0000000   0.0000000   0.0000000), wk =   0.0058480
        k(  112) = (   0.0250000   0.0083333  -0.0083333), wk =   0.0058480
        k(  113) = (   0.0500000   0.0166667  -0.0166667), wk =   0.0058480
        k(  114) = (   0.0750000   0.0250000  -0.0250000), wk =   0.0058480
        k(  115) = (   0.1000000   0.0333333  -0.0333333), wk =   0.0058480
        k(  116) = (   0.1250000   0.0416667  -0.0416667), wk =   0.0058480
        k(  117) = (   0.1500000   0.0500000  -0.0500000), wk =   0.0058480
        k(  118) = (   0.1750000   0.0583333  -0.0583333), wk =   0.0058480
        k(  119) = (   0.2000000   0.0666667  -0.0666667), wk =   0.0058480
        k(  120) = (   0.2250000   0.0750000  -0.0750000), wk =   0.0058480
        k(  121) = (   0.2500000   0.0833333  -0.0833333), wk =   0.0058480
        k(  122) = (   0.2750000   0.0916667  -0.0916667), wk =   0.0058480
        k(  123) = (   0.3000000   0.1000000  -0.1000000), wk =   0.0058480
        k(  124) = (   0.3250000   0.1083333  -0.1083333), wk =   0.0058480
        k(  125) = (   0.3500000   0.1166667  -0.1166667), wk =   0.0058480
        k(  126) = (   0.3750000   0.1250000  -0.1250000), wk =   0.0058480
        k(  127) = (   0.4000000   0.1333333  -0.1333333), wk =   0.0058480
        k(  128) = (   0.4250000   0.1416667  -0.1416667), wk =   0.0058480
        k(  129) = (   0.4500000   0.1500000  -0.1500000), wk =   0.0058480
        k(  130) = (   0.4750000   0.1583333  -0.1583333), wk =   0.0058480
        k(  131) = (   0.5000000   0.1666667  -0.1666667), wk =   0.0058480
        k(  132) = (   0.5250000   0.1750000  -0.1750000), wk =   0.0058480
        k(  133) = (   0.5500000   0.1833333  -0.1833333), wk =   0.0058480
        k(  134) = (   0.5750000   0.1916667  -0.1916667), wk =   0.0058480
        k(  135) = (   0.6000000   0.2000000  -0.2000000), wk =   0.0058480
        k(  136) = (   0.6250000   0.2083333  -0.2083333), wk =   0.0058480
        k(  137) = (   0.6500000   0.2166667  -0.2166667), wk =   0.0058480
        k(  138) = (   0.6750000   0.2250000  -0.2250000), wk =   0.0058480
        k(  139) = (   0.7000000   0.2333333  -0.2333333), wk =   0.0058480
        k(  140) = (   0.7250000   0.2416667  -0.2416667), wk =   0.0058480
        k(  141) = (   0.7500000   0.2500000  -0.2500000), wk =   0.0058480
        k(  142) = (   0.7416667   0.2583333  -0.2583333), wk =   0.0058480
        k(  143) = (   0.7333333   0.2666667  -0.2666667), wk =   0.0058480
        k(  144) = (   0.7250000   0.2750000  -0.2750000), wk =   0.0058480
        k(  145) = (   0.7166667   0.2833333  -0.2833333), wk =   0.0058480
        k(  146) = (   0.7083333   0.2916667  -0.2916667), wk =   0.0058480
        k(  147) = (   0.7000000   0.3000000  -0.3000000), wk =   0.0058480
        k(  148) = (   0.6916667   0.3083333  -0.3083333), wk =   0.0058480
        k(  149) = (   0.6833333   0.3166667  -0.3166667), wk =   0.0058480
        k(  150) = (   0.6750000   0.3250000  -0.3250000), wk =   0.0058480
        k(  151) = (   0.6666667   0.3333333  -0.3333333), wk =   0.0058480
        k(  152) = (   0.6583333   0.3416667  -0.3416667), wk =   0.0058480
        k(  153) = (   0.6500000   0.3500000  -0.3500000), wk =   0.0058480
        k(  154) = (   0.6416667   0.3583333  -0.3583333), wk =   0.0058480
        k(  155) = (   0.6333333   0.3666667  -0.3666667), wk =   0.0058480
        k(  156) = (   0.6250000   0.3750000  -0.3750000), wk =   0.0058480
        k(  157) = (   0.6166667   0.3833333  -0.3833333), wk =   0.0058480
        k(  158) = (   0.6083333   0.3916667  -0.3916667), wk =   0.0058480
        k(  159) = (   0.6000000   0.4000000  -0.4000000), wk =   0.0058480
        k(  160) = (   0.5916667   0.4083333  -0.4083333), wk =   0.0058480
        k(  161) = (   0.5833333   0.4166667  -0.4166667), wk =   0.0058480
        k(  162) = (   0.5750000   0.4250000  -0.4250000), wk =   0.0058480
        k(  163) = (   0.5666667   0.4333333  -0.4333333), wk =   0.0058480
        k(  164) = (   0.5583333   0.4416667  -0.4416667), wk =   0.0058480
        k(  165) = (   0.5500000   0.4500000  -0.4500000), wk =   0.0058480
        k(  166) = (   0.5416667   0.4583333  -0.4583333), wk =   0.0058480
        k(  167) = (   0.5333333   0.4666667  -0.4666667), wk =   0.0058480
        k(  168) = (   0.5250000   0.4750000  -0.4750000), wk =   0.0058480
        k(  169) = (   0.5166667   0.4833333  -0.4833333), wk =   0.0058480
        k(  170) = (   0.5083333   0.4916667  -0.4916667), wk =   0.0058480
        k(  171) = (   0.5000000   0.5000000  -0.5000000), wk =   0.0058480

     Dense  grid:    32565 G-vectors     FFT dimensions: (  45,  45,  45)

     Smooth grid:     6339 G-vectors     FFT dimensions: (  25,  25,  25)

     Dynamical RAM for                 wfc:       0.07 MB

     Dynamical RAM for     wfc (w. buffer):       0.07 MB

     Dynamical RAM for           str. fact:       0.06 MB

     Dynamical RAM for           local pot:       0.00 MB

     Dynamical RAM for          nlocal pot:       0.05 MB

     Dynamical RAM for                qrad:       6.12 MB

     Dynamical RAM for          rho,v,vnew:       1.86 MB

     Dynamical RAM for           G-vectors:       0.24 MB

     Dynamical RAM for          h,s,v(r/c):       0.11 MB

     Dynamical RAM for          <psi|beta>:       0.02 MB

     Dynamical RAM for                 psi:       0.14 MB

     Dynamical RAM for                hpsi:       0.14 MB

     Dynamical RAM for      wfcinit/wfcrot:       0.12 MB

     Estimated static dynamical RAM per process >       9.27 MB

     Estimated max dynamical RAM per process >       9.68 MB

     Estimated total dynamical RAM >     619.55 MB
     Generating pointlists ...
     new r_m :   0.3572 (alat units)  1.9255 (a.u.) for type    1

     The potential is recalculated from file :
     /home/ftanzim/Fe-qe/out/fe.save/charge-density

     Starting wfcs are   20 randomized atomic wfcs +    4 random wfcs

     Band Structure Calculation
     Davidson diagonalization with overlap

     Computing kpt #:     1  of    22 on this pool
     total cpu time spent up to now is        0.9 secs

     Computing kpt #:     2  of    22 on this pool
     total cpu time spent up to now is        1.0 secs

     Computing kpt #:     3  of    22 on this pool
     total cpu time spent up to now is        1.1 secs

     Computing kpt #:     4  of    22 on this pool
     total cpu time spent up to now is        1.1 secs

     Computing kpt #:     5  of    22 on this pool
     total cpu time spent up to now is        1.3 secs

     Computing kpt #:     6  of    22 on this pool
     total cpu time spent up to now is        1.4 secs

     Computing kpt #:     7  of    22 on this pool
     total cpu time spent up to now is        1.4 secs

     Computing kpt #:     8  of    22 on this pool
     total cpu time spent up to now is        1.5 secs

     Computing kpt #:     9  of    22 on this pool
     total cpu time spent up to now is        1.6 secs

     Computing kpt #:    10  of    22 on this pool
     total cpu time spent up to now is        1.7 secs

     Computing kpt #:    11  of    22 on this pool
     total cpu time spent up to now is        1.8 secs

     Computing kpt #:    12  of    22 on this pool
     total cpu time spent up to now is        1.8 secs

     Computing kpt #:    13  of    22 on this pool
     total cpu time spent up to now is        1.9 secs

     Computing kpt #:    14  of    22 on this pool
     total cpu time spent up to now is        2.0 secs

     Computing kpt #:    15  of    22 on this pool
     total cpu time spent up to now is        2.1 secs

     Computing kpt #:    16  of    22 on this pool
     total cpu time spent up to now is        2.2 secs

     Computing kpt #:    17  of    22 on this pool
     total cpu time spent up to now is        2.2 secs

     Computing kpt #:    18  of    22 on this pool
     total cpu time spent up to now is        2.3 secs

     Computing kpt #:    19  of    22 on this pool
     total cpu time spent up to now is        2.4 secs

     Computing kpt #:    20  of    22 on this pool
     total cpu time spent up to now is        2.5 secs

     Computing kpt #:    21  of    22 on this pool
     total cpu time spent up to now is        2.6 secs

     Computing kpt #:    22  of    22 on this pool
     total cpu time spent up to now is        2.7 secs

     ethr =  6.25E-11,  avg # of iterations = 22.3

     total cpu time spent up to now is        2.7 secs

     End of band structure calculation

          k = 0.0000 0.0000 0.0000 (   767 PWs)   bands (ev):

   -70.9461 -68.3494 -37.6160 -37.1638 -36.4046 -34.6091 -34.1564 -33.7995
     9.3146   9.5461  15.5274  15.5540  15.5835  16.8495  16.8577  17.5470
    17.5663  17.5965  19.6272  19.6281  41.9014  41.9014  41.9014  41.9713

          k = 0.0000 0.0250 0.0000 (   767 PWs)   bands (ev):

   -70.9459 -68.3491 -37.6165 -37.1642 -36.4052 -34.6097 -34.1568 -33.8001
     9.3274   9.5590  15.5293  15.5542  15.5855  16.8450  16.8594  17.5487
    17.5660  17.5985  19.6198  19.6315  41.8309  41.8896  41.9012  41.9013

          k = 0.0000 0.0500 0.0000 (   771 PWs)   bands (ev):

   -70.9480 -68.3512 -37.6188 -37.1657 -36.4075 -34.6122 -34.1584 -33.8028
     9.3650   9.5968  15.5140  15.5265  15.5843  16.8206  16.8391  17.5321
    17.5377  17.5989  19.5902  19.6139  41.6326  41.6617  41.8987  41.8987

          k = 0.0000 0.0750 0.0000 (   775 PWs)   bands (ev):

   -70.9498 -68.3529 -37.6220 -37.1682 -36.4109 -34.6157 -34.1612 -33.8065
     9.4278   9.6600  15.4917  15.4985  15.5970  16.7551  16.8516  17.5075
    17.5081  17.6141  19.5160  19.6300  41.3248  41.3354  41.8872  41.8872

          k = 0.0000 0.1000 0.0000 (   775 PWs)   bands (ev):

   -70.9481 -68.3511 -37.6256 -37.1709 -36.4149 -34.6199 -34.1642 -33.8110
     9.5163   9.7491  15.4936  15.4988  15.6212  16.7141  16.8704  17.5050
    17.5058  17.6409  19.4622  19.6528  40.9228  40.9770  41.8490  41.8491

          k = 0.0000 0.1250 0.0000 (   771 PWs)   bands (ev):

   -70.9433 -68.3459 -37.6295 -37.1742 -36.4193 -34.6243 -34.1680 -33.8159
     9.6300   9.8636  15.4989  15.5029  15.6530  16.6622  16.9831  17.5047
    17.5071  17.6759  19.3941  19.7686  40.4855  40.5842  41.7398  41.7399

          k = 0.0000 0.1500 0.0000 (   759 PWs)   bands (ev):

   -70.9318 -68.3345 -37.6332 -37.1771 -36.4239 -34.6286 -34.1714 -33.8207
     9.7686  10.0033  15.5981  15.6033  15.7235  16.6197  17.0298  17.5968
    17.5982  17.7480  19.3309  19.8199  40.0386  40.1819  41.5922  41.5923

          k = 0.0000 0.1750 0.0000 (   759 PWs)   bands (ev):

   -70.9292 -68.3316 -37.6398 -37.1821 -36.4310 -34.6360 -34.1769 -33.8286
     9.9286  10.1650  15.6011  15.6046  15.7673  16.5456  17.0592  17.5927
    17.5953  17.7969  19.2343  19.8552  39.5865  39.7740  41.3541  41.3543

          k = 0.0000 0.2000 0.0000 (   759 PWs)   bands (ev):

   -70.9262 -68.3289 -37.6476 -37.1871 -36.4395 -34.6447 -34.1822 -33.8379
    10.1080  10.3474  15.6389  15.6407  15.8606  16.4744  16.9436  17.6224
    17.6250  17.8944  19.1373  19.7466  39.1462  39.3781  41.0486  41.0488

          k = 0.0000 0.2250 0.0000 (   763 PWs)   bands (ev):

   -70.9262 -68.3286 -37.6564 -37.1937 -36.4489 -34.6547 -34.1896 -33.8483
    10.3084  10.5519  15.6153  15.6163  15.9084  16.3804  16.9528  17.5933
    17.5966  17.9491  19.0153  19.7601  38.7151  38.9914  40.6467  40.6469

          k = 0.0000 0.2500 0.0000 (   755 PWs)   bands (ev):

   -70.9171 -68.3194 -37.6643 -37.1995 -36.4576 -34.6637 -34.1960 -33.8578
    10.5297  10.7787  15.6635  15.6636  16.0461  16.2819  16.9977  17.6329
    17.6366  18.0917  18.8862  19.8072  38.3023  38.6235  40.2113  40.2117

          k = 0.0000 0.2750 0.0000 (   763 PWs)   bands (ev):

   -70.9197 -68.3216 -37.6749 -37.2080 -36.4688 -34.6756 -34.2054 -33.8702
    10.7652  11.0219  15.6121  15.6125  16.0916  16.1471  17.0348  17.5783
    17.5829  18.1459  18.7207  19.8447  37.8980  38.2631  39.6780  39.6785

          k = 0.0000 0.3000 0.0000 (   763 PWs)   bands (ev):

   -70.9160 -68.3175 -37.6848 -37.2161 -36.4794 -34.6868 -34.2144 -33.8818
    11.0176  11.2847  15.6264  15.6273  16.0282  16.1623  17.0831  17.5874
    17.5925  18.2249  18.5677  19.8893  37.5217  37.9319  39.1449  39.1454

          k = 0.0000 0.3250 0.0000 (   763 PWs)   bands (ev):

   -70.9120 -68.3131 -37.6950 -37.2246 -36.4904 -34.6984 -34.2239 -33.8939
    11.2819  11.5631  15.6460  15.6481  15.9034  16.2379  17.1391  17.6028
    17.6084  18.3094  18.4066  19.9366  37.1665  37.6219  38.5894  38.5899

          k = 0.0000 0.3500 0.0000 (   763 PWs)   bands (ev):

   -70.9077 -68.3084 -37.7055 -37.2335 -36.5016 -34.7102 -34.2339 -33.9062
    11.5548  11.8551  15.6687  15.6754  15.7762  16.3181  17.2048  17.6252
    17.6315  18.2388  18.3990  19.9868  36.8326  37.3333  38.0196  38.0200

          k = 0.0000 0.3750 0.0000 (   763 PWs)   bands (ev):

   -70.9031 -68.3035 -37.7161 -37.2428 -36.5130 -34.7222 -34.2443 -33.9187
    11.8319  12.1579  15.6232  15.7098  15.7193  16.4023  17.2827  17.6552
    17.6626  18.0655  18.4933  20.0406  36.5200  37.0659  37.4414  37.4420

          k = 0.0000 0.4000 0.0000 (   771 PWs)   bands (ev):

   -70.9047 -68.3046 -37.7281 -37.2531 -36.5255 -34.7358 -34.2558 -33.9325
    12.1005  12.4632  15.4802  15.6892  15.6936  16.4759  17.3459  17.6341
    17.6443  17.8818  18.5783  20.0676  36.2242  36.8072  36.8225  36.8301

          k = 0.0000 0.4250 0.0000 (   767 PWs)   bands (ev):

   -70.8972 -68.2967 -37.7383 -37.2625 -36.5366 -34.7474 -34.2664 -33.9446
    12.3692  12.7772  15.3380  15.7656  15.7683  16.5907  17.4614  17.6795
    17.7189  17.7283  18.7036  20.1341  35.9527  36.2511  36.2516  36.5880

          k = 0.0000 0.4500 0.0000 (   767 PWs)   bands (ev):

   -70.8924 -68.2913 -37.7484 -37.2734 -36.5476 -34.7587 -34.2789 -33.9566
    12.6390  13.0978  15.1626  15.8335  15.8357  16.6158  17.4855  17.6592
    17.7785  17.7958  18.7422  20.2820  35.6630  35.6689  35.6866  36.3522

          k = 0.0000 0.4750 0.0000 (   767 PWs)   bands (ev):

   -70.8880 -68.2865 -37.7589 -37.2837 -36.5589 -34.7707 -34.2905 -33.9690
    12.8764  13.4074  15.0150  15.8943  15.8965  16.7057  17.3031  17.7941
    17.8394  17.8896  18.8449  20.3650  35.0914  35.0916  35.4470  35.8280

          k = 0.0000 0.5000 0.0000 (   771 PWs)   bands (ev):

   -70.8866 -68.2848 -37.7700 -37.2943 -36.5705 -34.7831 -34.3023 -33.9818
    13.0694  13.6965  14.8651  15.9442  15.9464  16.7941  17.1216  17.8752
    17.8927  18.0279  18.9492  20.4206  34.5109  34.5109  35.2232  35.2477

          k = 0.0000 0.5250 0.0000 (   771 PWs)   bands (ev):

   -70.8822 -68.2800 -37.7800 -37.3046 -36.5813 -34.7944 -34.3140 -33.9936
    13.2439  13.9765  14.7178  16.0215  16.0239  16.8566  16.9700  17.9657
    17.9739  18.2703  19.0544  20.5476  33.9490  33.9490  34.6834  34.6839

          k = 0.0000 0.5500 0.0000 (   771 PWs)   bands (ev):

   -70.8778 -68.2752 -37.7896 -37.3149 -36.5916 -34.8052 -34.3256 -34.0049
    13.3826  14.2334  14.5721  16.1075  16.1103  16.7383  17.0023  18.0607
    18.0658  18.5662  19.1598  20.7057  33.3972  33.3973  34.1273  34.1275

          k = 0.0000 0.5750 0.0000 (   771 PWs)   bands (ev):

   -70.8734 -68.2704 -37.7987 -37.3250 -36.6014 -34.8155 -34.3371 -34.0157
    13.4846  14.4291  14.4615  16.2016  16.2052  16.5688  17.0896  18.1645
    18.1681  18.9121  19.2648  20.9006  32.8571  32.8572  33.5800  33.5802

          k = 0.0000 0.6000 0.0000 (   763 PWs)   bands (ev):

   -70.8632 -68.2596 -37.8061 -37.3340 -36.6097 -34.8240 -34.3475 -34.0247
    13.5815  14.3377  14.6725  16.3255  16.3335  16.4452  17.1820  18.3012
    18.3039  19.3507  19.3705  21.1938  32.3367  32.3368  33.0510  33.0512

          k = 0.0000 0.6250 0.0000 (   771 PWs)   bands (ev):

   -70.8651 -68.2612 -37.8154 -37.3449 -36.6194 -34.8343 -34.3599 -34.0355
    13.6177  14.1593  14.8334  16.2323  16.3965  16.3991  17.2368  18.3797
    18.3820  19.4385  19.7753  21.4608  31.8028  31.8029  32.5015  32.5016

          k = 0.0000 0.6500 0.0000 (   771 PWs)   bands (ev):

   -70.8612 -68.2569 -37.8230 -37.3544 -36.6277 -34.8430 -34.3707 -34.0445
    13.6268  14.0270  14.9577  16.0749  16.5125  16.5127  17.3230  18.5100
    18.5120  19.5366  20.2480  21.7824  31.3067  31.3068  31.9906  31.9907

          k = 0.0000 0.6750 0.0000 (   771 PWs)   bands (ev):

   -70.8574 -68.2528 -37.8302 -37.3634 -36.6354 -34.8510 -34.3810 -34.0529
    13.6131  13.9007  15.0469  15.9230  16.6343  16.6351  17.4066  18.6487
    18.6506  19.6314  20.7566  22.1497  30.8284  30.8286  31.4951  31.4952

          k = 0.0000 0.7000 0.0000 (   771 PWs)   bands (ev):

   -70.8537 -68.2488 -37.8367 -37.3720 -36.6424 -34.8584 -34.3909 -34.0606
    13.5817  13.7810  15.1041  15.7790  16.7616  16.7628  17.4869  18.7949
    18.7967  19.7224  21.2962  22.5596  30.3698  30.3699  31.0169  31.0169

          k = 0.0000 0.7250 0.0000 (   771 PWs)   bands (ev):

   -70.8501 -68.2449 -37.8426 -37.3802 -36.6488 -34.8651 -34.4002 -34.0676
    13.5375  13.6687  15.1342  15.6441  16.8929  16.8943  17.5633  18.9473
    18.9491  19.8090  21.8619  23.0076  29.9326  29.9327  30.5577  30.5578

          k = 0.0000 0.7500 0.0000 (   771 PWs)   bands (ev):

   -70.8466 -68.2412 -37.8480 -37.3877 -36.6546 -34.8711 -34.4089 -34.0739
    13.4847  13.5644  15.1422  15.5189  17.0265  17.0282  17.6354  19.1043
    19.1062  19.8906  22.4486  23.4877  29.5190  29.5190  30.1200  30.1201

          k = 0.0000 0.7750 0.0000 (   783 PWs)   bands (ev):

   -70.8521 -68.2467 -37.8541 -37.3969 -36.6608 -34.8779 -34.4193 -34.0807
    13.3839  13.3938  15.1089  15.3321  17.1482  17.1504  17.6141  19.2528
    19.2550  19.8784  23.0236  23.9622  29.1264  29.1264  29.7005  29.7006

          k = 0.0000 0.8000 0.0000 (   791 PWs)   bands (ev):

   -70.8550 -68.2495 -37.8596 -37.4039 -36.6664 -34.8841 -34.4271 -34.0870
    13.2831  13.2963  15.0449  15.2277  17.2218  17.2242  17.6646  19.3569
    19.3593  19.9375  23.6280  24.4758  28.7576  28.7577  29.3017  29.3018

          k = 0.0000 0.8250 0.0000 (   784 PWs)   bands (ev):

   -70.8472 -68.2416 -37.8625 -37.4086 -36.6697 -34.8875 -34.4326 -34.0904
    13.2075  13.2628  15.0016  15.1723  17.4112  17.4146  17.7281  19.5732
    19.5763  20.0078  24.2433  25.0086  28.4352  28.4354  28.9524  28.9525

          k = 0.0000 0.8500 0.0000 (   784 PWs)   bands (ev):

   -70.8451 -68.2393 -37.8658 -37.4137 -36.6731 -34.8912 -34.4384 -34.0941
    13.1501  13.1934  14.9668  15.0900  17.5271  17.5316  17.7760  19.7191
    19.7228  20.0619  24.8557  25.5427  28.1420  28.1424  28.6299  28.6301

          k = 0.0000 0.8750 0.0000 (   776 PWs)   bands (ev):

   -70.8371 -68.2312 -37.8671 -37.4174 -36.6748 -34.8928 -34.4429 -34.0958
    13.1301  13.1424  14.9581  15.0266  17.7025  17.7121  17.8256  19.9244
    19.9308  20.1147  25.4586  26.0699  27.8892  27.8901  28.3496  28.3499

          k = 0.0000 0.9000 0.0000 (   772 PWs)   bands (ev):

   -70.8328 -68.2267 -37.8686 -37.4209 -36.6765 -34.8946 -34.4470 -34.0975
    13.0937  13.1323  14.9650  14.9689  17.7953  17.8155  17.8696  20.0496
    20.0616  20.1582  26.0248  26.5597  27.6745  27.6768  28.1073  28.1079

          k = 0.0000 0.9250 0.0000 (   772 PWs)   bands (ev):

   -70.8317 -68.2255 -37.8704 -37.4237 -36.6783 -34.8966 -34.4503 -34.0995
    13.0555  13.0955  14.9238  14.9378  17.8493  17.8911  17.9174  20.1342
    20.1616  20.2034  26.5141  26.9705  27.5058  27.5136  27.9125  27.9139

          k = 0.0000 0.9500 0.0000 (   780 PWs)   bands (ev):

   -70.8367 -68.2303 -37.8728 -37.4266 -36.6806 -34.8993 -34.4535 -34.1020
    13.0084  13.0619  14.8752  14.9117  17.8416  17.8658  17.9122  20.1348
    20.1557  20.2121  26.9009  27.2419  27.3898  27.4460  27.7683  27.7727

          k = 0.0000 0.9750 0.0000 (   784 PWs)   bands (ev):

   -70.8391 -68.2329 -37.8743 -37.4280 -36.6820 -34.9009 -34.4550 -34.1036
    12.9915  12.9920  14.8538  14.8555  17.8618  17.8921  17.9294  20.1644
    20.1942  20.2337  27.1224  27.2547  27.3549  27.5564  27.6853  27.7070

          k = 0.0000 1.0000 0.0000 (   784 PWs)   bands (ev):

   -70.8390 -68.2328 -37.8745 -37.4284 -36.6823 -34.9012 -34.4554 -34.1039
    12.9858  12.9861  14.8486  14.8493  17.8693  17.9031  17.9366  20.1744
    20.2093  20.2431  27.1676  27.2379  27.3757  27.5899  27.6595  27.7131

          k = 0.0125 0.9875 0.0000 (   784 PWs)   bands (ev):

   -70.8391 -68.2328 -37.8744 -37.4282 -36.6821 -34.9011 -34.4552 -34.1037
    12.9887  12.9891  14.8517  14.8519  17.8654  17.8976  17.9332  20.1692
    20.2017  20.2386  27.1526  27.2471  27.3576  27.5816  27.6720  27.7006

          k = 0.0250 0.9750 0.0000 (   784 PWs)   bands (ev):

   -70.8392 -68.2330 -37.8740 -37.4276 -36.6817 -34.9006 -34.4545 -34.1033
    12.9972  12.9978  14.8597  14.8608  17.8508  17.8811  17.9258  20.1491
    20.1792  20.2299  27.1055  27.2714  27.3057  27.5582  27.6652  27.7106

          k = 0.0375 0.9625 0.0000 (   778 PWs)   bands (ev):

   -70.8353 -68.2289 -37.8723 -37.4263 -36.6801 -34.8987 -34.4532 -34.1014
    13.0311  13.0524  14.8924  14.9062  17.8266  17.8990  17.9235  20.1136
    20.1865  20.2275  27.0237  27.2280  27.2961  27.5304  27.6166  27.7773

          k = 0.0500 0.9500 0.0000 (   770 PWs)   bands (ev):

   -70.8301 -68.2236 -37.8703 -37.4241 -36.6782 -34.8966 -34.4507 -34.0993
    13.0664  13.1208  14.9266  14.9643  17.8349  17.8683  17.9529  20.1063
    20.1416  20.2572  26.9052  27.1336  27.2807  27.5149  27.5847  27.8751

          k = 0.0625 0.9375 0.0000 (   770 PWs)   bands (ev):

   -70.8308 -68.2244 -37.8692 -37.4223 -36.6771 -34.8954 -34.4486 -34.0981
    13.0900  13.1450  14.9519  14.9857  17.7699  17.8182  17.9526  20.0220
    20.0743  20.2583  26.7491  27.0264  27.1960  27.4646  27.6413  27.9975

          k = 0.0750 0.9250 0.0000 (   770 PWs)   bands (ev):

   -70.8317 -68.2254 -37.8682 -37.4195 -36.6760 -34.8943 -34.4454 -34.0970
    13.1089  13.1790  14.9746  15.0154  17.6910  17.7093  18.0102  19.9276
    19.9398  20.3171  26.5617  26.9114  27.0646  27.3960  27.7570  28.1474

          k = 0.0875 0.9125 0.0000 (   772 PWs)   bands (ev):

   -70.8343 -68.2281 -37.8672 -37.4170 -36.6748 -34.8931 -34.4424 -34.0956
    13.1342  13.1982  15.0032  15.0332  17.6073  17.6168  18.0140  19.8220
    19.8247  20.3216  26.3455  26.7900  26.9001  27.3225  27.9017  28.3177

          k = 0.1000 0.9000 0.0000 (   772 PWs)   bands (ev):

   -70.8355 -68.2294 -37.8656 -37.4141 -36.6729 -34.8912 -34.4391 -34.0936
    13.1710  13.2390  15.0417  15.0694  17.5143  17.5276  18.0192  19.6985
    19.7186  20.3275  26.1138  26.6652  26.7184  27.2475  28.0695  28.5086

          k = 0.1125 0.8875 0.0000 (   780 PWs)   bands (ev):

   -70.8428 -68.2369 -37.8650 -37.4116 -36.6719 -34.8906 -34.4359 -34.0925
    13.2020  13.2276  15.0637  15.0756  17.3476  17.4372  17.9870  19.5096
    19.6038  20.2963  25.8433  26.4957  26.5376  27.1708  28.2544  28.7138

          k = 0.1250 0.8750 0.0000 (   778 PWs)   bands (ev):

   -70.8429 -68.2371 -37.8630 -37.4074 -36.6695 -34.8885 -34.4311 -34.0899
    13.2714  13.2788  15.1095  15.1412  17.2355  17.3445  17.9930  19.3732
    19.4868  20.3032  25.5824  26.2817  26.4182  27.1031  28.4607  28.9408

          k = 0.1375 0.8625 0.0000 (   778 PWs)   bands (ev):

   -70.8445 -68.2388 -37.8610 -37.4035 -36.6669 -34.8862 -34.4266 -34.0869
    13.3164  13.3357  15.1604  15.1857  17.1109  17.2472  17.9999  19.2250
    19.3659  20.3110  25.3130  26.0578  26.2959  27.0329  28.6816  29.1809

          k = 0.1500 0.8500 0.0000 (   774 PWs)   bands (ev):

   -70.8432 -68.2376 -37.8582 -37.3992 -36.6634 -34.8833 -34.4217 -34.0828
    13.3692  13.4116  15.2275  15.2350  17.0005  17.1913  18.0099  19.0903
    19.2859  20.3220  25.0422  25.8317  26.1834  26.9741  28.9203  29.4383

          k = 0.1625 0.8375 0.0000 (   780 PWs)   bands (ev):

   -70.8497 -68.2443 -37.8567 -37.3961 -36.6609 -34.8817 -34.4181 -34.0798
    13.3869  13.4615  15.2527  15.2752  16.8338  17.0941  17.9533  18.9019
    19.1703  20.2667  24.7459  25.5762  26.0619  26.9025  29.1700  29.7041

          k = 0.1750 0.8250 0.0000 (   780 PWs)   bands (ev):

   -70.8518 -68.2465 -37.8545 -37.3916 -36.6576 -34.8795 -34.4129 -34.0760
    13.4302  13.5344  15.2897  15.3408  16.6970  16.9910  17.9603  18.7440
    19.0520  20.2748  24.4612  25.3321  25.9542  26.8438  29.4307  29.9802

          k = 0.1875 0.8125 0.0000 (   778 PWs)   bands (ev):

   -70.8525 -68.2473 -37.8519 -37.3868 -36.6539 -34.8768 -34.4074 -34.0715
    13.4786  13.6358  15.3273  15.4297  16.5592  16.8911  17.9680  18.5862
    18.9418  20.2836  24.1839  25.0958  25.8533  26.7903  29.7027  30.2660

          k = 0.2000 0.8000 0.0000 (   778 PWs)   bands (ev):

   -70.8546 -68.2496 -37.8496 -37.3819 -36.6502 -34.8746 -34.4017 -34.0671
    13.5155  13.7198  15.3512  15.5053  16.4215  16.7951  17.9762  18.4294
    18.8407  20.2930  23.8961  24.8459  25.7592  26.7417  29.9849  30.5607

          k = 0.2125 0.7875 0.0000 (   778 PWs)   bands (ev):

   -70.8567 -68.2518 -37.8472 -37.3769 -36.6463 -34.8724 -34.3958 -34.0624
    13.5472  13.8097  15.3658  15.5861  16.2846  16.7056  17.9849  18.2745
    18.7525  20.3029  23.6078  24.5941  25.6723  26.6980  30.2766  30.8636

          k = 0.2250 0.7750 0.0000 (   778 PWs)   bands (ev):

   -70.8588 -68.2541 -37.8449 -37.3718 -36.6423 -34.8702 -34.3899 -34.0574
    13.5722  13.9055  15.3693  15.6722  16.1495  16.6247  17.9941  18.1223
    18.6795  20.3132  23.3196  24.3412  25.5925  26.6593  30.5771  31.1738

          k = 0.2375 0.7625 0.0000 (   778 PWs)   bands (ev):

   -70.8609 -68.2563 -37.8427 -37.3666 -36.6381 -34.8682 -34.3838 -34.0522
    13.5892  14.0070  15.3605  15.7632  16.0170  16.5544  17.9735  18.0035
    18.6237  20.3240  23.0323  24.0878  25.5198  26.6252  30.8856  31.4908

          k = 0.2500 0.7500 0.0000 (   774 PWs)   bands (ev):

   -70.8600 -68.2556 -37.8402 -37.3604 -36.6335 -34.8660 -34.3765 -34.0465
    13.6162  14.1148  15.3535  15.8583  15.9401  16.4964  17.8762  18.0156
    18.5873  20.3374  22.7463  23.8348  25.4729  26.6162  31.2185  31.8337

          k = 0.2625 0.7375 0.0000 (   774 PWs)   bands (ev):

   -70.8620 -68.2578 -37.8380 -37.3552 -36.6291 -34.8641 -34.3704 -34.0410
    13.6128  14.2278  15.3174  15.8079  15.9644  16.4518  17.7345  18.0255
    18.5695  20.3486  22.4618  23.5821  25.4137  26.5908  31.5413  32.1625

          k = 0.2750 0.7250 0.0000 (   778 PWs)   bands (ev):

   -70.8670 -68.2629 -37.8363 -37.3510 -36.6248 -34.8627 -34.3655 -34.0355
    13.5895  14.3440  15.2632  15.6741  16.0690  16.4035  17.5875  17.9745
    18.5508  20.2993  22.1768  23.3273  25.3575  26.5662  31.8690  32.4949

          k = 0.2875 0.7125 0.0000 (   778 PWs)   bands (ev):

   -70.8689 -68.2650 -37.8343 -37.3458 -36.6203 -34.8612 -34.3595 -34.0297
    13.5663  14.4683  15.2044  15.5556  16.1808  16.3854  17.4569  17.9838
    18.5671  20.3100  21.8967  23.0772  25.3104  26.5482  32.2035  32.8333

          k = 0.3000 0.7000 0.0000 (   774 PWs)   bands (ev):

   -70.8677 -68.2639 -37.8317 -37.3404 -36.6153 -34.8589 -34.3533 -34.0233
    13.5442  14.6245  15.1462  15.4506  16.3166  16.3834  17.3404  18.0317
    18.6004  20.3587  21.6307  22.8463  25.2744  26.5405  32.5468  33.1797

          k = 0.3125 0.6875 0.0000 (   774 PWs)   bands (ev):

   -70.8694 -68.2658 -37.8299 -37.3355 -36.6107 -34.8576 -34.3475 -34.0175
    13.5031  14.7597  15.0710  15.3425  16.3905  16.4379  17.2222  18.0402
    18.6449  20.3686  21.3563  22.6010  25.2381  26.5286  32.8908  33.5256

          k = 0.3250 0.6750 0.0000 (   782 PWs)   bands (ev):

   -70.8769 -68.2734 -37.8293 -37.3314 -36.6075 -34.8575 -34.3426 -34.0134
    13.4494  14.8678  14.9852  15.1761  16.3648  16.5435  17.0509  18.0407
    18.6608  20.3703  21.0625  22.3246  25.1859  26.4962  33.2233  33.8572

          k = 0.3375 0.6625 0.0000 (   782 PWs)   bands (ev):

   -70.8786 -68.2753 -37.8277 -37.3269 -36.6032 -34.8565 -34.3372 -34.0078
    13.3958  14.9019  15.0124  15.0786  16.3914  16.6738  16.9456  18.0487
    18.7241  20.3793  20.7944  22.0831  25.1573  26.4880  33.5738  34.2077

          k = 0.3500 0.6500 0.0000 (   776 PWs)   bands (ev):

   -70.8757 -68.2726 -37.8254 -37.3222 -36.5978 -34.8548 -34.3319 -34.0007
    13.3405  14.8207  15.0047  15.1721  16.5167  16.8148  16.8652  18.0569
    18.8790  20.3871  20.5364  21.8536  25.1645  26.5175  33.9326  34.5660

          k = 0.3625 0.6375 0.0000 (   778 PWs)   bands (ev):

   -70.8788 -68.2757 -37.8243 -37.3185 -36.5941 -34.8542 -34.3275 -33.9958
    13.2773  14.7340  14.8898  15.3262  16.5462  16.7507  16.9529  18.0645
    18.9480  20.2707  20.4010  21.6196  25.1331  26.5013  34.2795  34.9095

          k = 0.3750 0.6250 0.0000 (   774 PWs)   bands (ev):

   -70.8773 -68.2743 -37.8224 -37.3144 -36.5898 -34.8526 -34.3228 -33.9903
    13.2463  14.6768  14.8138  15.5088  16.5699  16.6849  17.1090  18.0934
    19.0193  20.0253  20.4287  21.4079  25.1356  26.5223  34.6346  35.2415

          k = 0.3875 0.6125 0.0000 (   774 PWs)   bands (ev):

   -70.8786 -68.2757 -37.8213 -37.3108 -36.5863 -34.8521 -34.3186 -33.9857
    13.1894  14.6006  14.7426  15.6719  16.5497  16.6697  17.2530  18.1000
    19.0899  19.7747  20.4359  21.1847  25.1205  26.5200  34.9866  35.3321

          k = 0.4000 0.6000 0.0000 (   780 PWs)   bands (ev):

   -70.8842 -68.2814 -37.8213 -37.3079 -36.5842 -34.8525 -34.3149 -33.9829
    13.1323  14.5261  14.6573  15.8114  16.4707  16.6319  17.3874  18.1050
    19.0932  19.5141  20.4417  20.9371  25.0865  26.4954  35.3290  35.3716

          k = 0.4125 0.5875 0.0000 (   780 PWs)   bands (ev):

   -70.8853 -68.2826 -37.8205 -37.3050 -36.5813 -34.8521 -34.3115 -33.9791
    13.0819  14.4613  14.6005  15.9789  16.4169  16.6637  17.5351  18.1107
    19.1560  19.2754  20.4481  20.7254  25.0754  26.4940  35.4174  35.6405

          k = 0.4250 0.5750 0.0000 (   780 PWs)   bands (ev):

   -70.8862 -68.2836 -37.8198 -37.3024 -36.5787 -34.8518 -34.3084 -33.9756
    13.0366  14.4036  14.5516  16.1471  16.3683  16.6976  17.6824  18.1160
    19.0447  19.2137  20.4540  20.5228  25.0667  26.4936  35.4592  35.6938

          k = 0.4375 0.5625 0.0000 (   780 PWs)   bands (ev):

   -70.8870 -68.2844 -37.8192 -37.3001 -36.5764 -34.8515 -34.3058 -33.9726
    12.9970  14.3538  14.5106  16.2963  16.3452  16.7298  17.8268  18.1208
    18.8239  19.2650  20.3317  20.4592  25.0600  26.4940  35.4962  35.7038

          k = 0.4500 0.5500 0.0000 (   778 PWs)   bands (ev):

   -70.8860 -68.2836 -37.8186 -37.2978 -36.5744 -34.8511 -34.3031 -33.9699
    12.9654  14.3129  14.5200  16.3225  16.4989  16.7282  17.9678  18.1344
    18.6188  19.2782  20.1674  20.4733  25.0582  26.4977  35.5260  35.7089

          k = 0.4625 0.5375 0.0000 (   778 PWs)   bands (ev):

   -70.8864 -68.2841 -37.8182 -37.2964 -36.5729 -34.8510 -34.3014 -33.9679
    12.9392  14.2803  14.4938  16.2966  16.6485  16.7554  18.0908  18.1395
    18.4292  19.3121  20.0133  20.4769  25.0543  26.4981  35.5519  35.7145

          k = 0.4750 0.5250 0.0000 (   778 PWs)   bands (ev):

   -70.8867 -68.2844 -37.8179 -37.2953 -36.5718 -34.8509 -34.3001 -33.9665
    12.9203  14.2569  14.4758  16.2780  16.7429  16.8144  18.1376  18.1991
    18.2687  19.3369  19.8894  20.4798  25.0520  26.4989  35.5708  35.7184

          k = 0.4875 0.5125 0.0000 (   778 PWs)   bands (ev):

   -70.8867 -68.2844 -37.8177 -37.2947 -36.5711 -34.8508 -34.2993 -33.9656
    12.9092  14.2430  14.4662  16.2677  16.7645  16.9040  18.1407  18.1550
    18.2691  19.3523  19.8072  20.4820  25.0514  26.5002  35.5822  35.7206

          k = 0.5000 0.5000 0.0000 (   798 PWs)   bands (ev):

   -70.9013 -68.2991 -37.8201 -37.2972 -36.5731 -34.8534 -34.3020 -33.9680
    12.8297  14.1795  14.3584  16.1667  16.6665  16.8688  18.0911  18.1111
    18.2947  19.2546  19.7065  20.4326  24.9427  26.3784  35.5855  35.7208

          k = 0.4833 0.4833 0.0000 (   778 PWs)   bands (ev):

   -70.8871 -68.2848 -37.8171 -37.2941 -36.5706 -34.8501 -34.2987 -33.9650
    12.9021  14.2290  14.4662  16.2678  16.7657  16.9406  18.0663  18.1324
    18.2663  19.3562  19.7763  20.4726  25.1159  26.5524  35.6000  35.7359

          k = 0.4667 0.4667 0.0000 (   778 PWs)   bands (ev):

   -70.8878 -68.2856 -37.8154 -37.2931 -36.5695 -34.8479 -34.2976 -33.9640
    12.8982  14.2051  14.4730  16.2759  16.7556  16.9375  17.9375  18.1038
    18.1860  19.3540  19.7728  20.4420  25.3092  26.7106  35.6418  35.7795

          k = 0.4500 0.4500 0.0000 (   778 PWs)   bands (ev):

   -70.8889 -68.2867 -37.8124 -37.2914 -36.5676 -34.8442 -34.2957 -33.9624
    12.8924  14.1647  14.4855  16.2904  16.7388  16.9332  17.7420  18.0393
    18.0830  19.3496  19.7680  20.3921  25.6171  26.9675  35.7112  35.8518

          k = 0.4333 0.4333 0.0000 (   782 PWs)   bands (ev):

   -70.8932 -68.2912 -37.8091 -37.2892 -36.5656 -34.8401 -34.2933 -33.9607
    12.8594  14.0878  14.5007  16.3083  16.7112  16.8895  17.4979  17.8913
    17.9920  19.3415  19.7235  20.3028  26.0037  27.2907  35.8077  35.9523

          k = 0.4167 0.4167 0.0000 (   782 PWs)   bands (ev):

   -70.8950 -68.2931 -37.8039 -37.2861 -36.5622 -34.8336 -34.2900 -33.9578
    12.8433  14.0059  14.5241  16.3345  16.6669  16.8794  17.2443  17.7281
    17.9158  19.3302  19.7144  20.2172  26.4854  27.7104  35.9311  36.0806

          k = 0.4000 0.4000 0.0000 (   778 PWs)   bands (ev):

   -70.8939 -68.2923 -37.7973 -37.2815 -36.5580 -34.8255 -34.2849 -33.9541
    12.8177  13.8978  14.5589  16.3724  16.6082  16.8667  17.0314  17.5698
    17.8901  19.3472  19.7079  20.1785  27.0304  28.1948  36.0808  36.2360

          k = 0.3833 0.3833 0.0000 (   778 PWs)   bands (ev):

   -70.8962 -68.2947 -37.7901 -37.2773 -36.5533 -34.8166 -34.2803 -33.9499
    12.7770  13.7605  14.5921  16.3921  16.4500  16.8329  16.9194  17.4238
    17.7895  19.3286  19.6973  20.0623  27.6236  28.7301  36.2562  36.4176

          k = 0.3667 0.3667 0.0000 (   782 PWs)   bands (ev):

   -70.9017 -68.3004 -37.7828 -37.2729 -36.5484 -34.8075 -34.2755 -33.9456
    12.7099  13.5888  14.6199  16.1948  16.4489  16.7729  16.8544  17.2956
    17.6444  19.3075  19.6410  19.9005  28.2535  29.3048  36.4556  36.6234

          k = 0.3500 0.3500 0.0000 (   782 PWs)   bands (ev):

   -70.9044 -68.3034 -37.7740 -37.2677 -36.5424 -34.7967 -34.2698 -33.9401
    12.6249  13.3924  14.6615  15.9709  16.4926  16.7436  16.8317  17.2021
    17.5253  19.2858  19.6282  19.7632  28.9194  29.9200  36.6795  36.8541

          k = 0.3333 0.3333 0.0000 (   780 PWs)   bands (ev):

   -70.9058 -68.3050 -37.7642 -37.2620 -36.5355 -34.7847 -34.2637 -33.9337
    12.5211  13.1759  14.7070  15.7853  16.5391  16.7215  16.8360  17.1505
    17.4012  19.2645  19.6189  19.6362  29.6256  30.5810  36.9278  37.1091

          k = 0.3167 0.3167 0.0000 (   784 PWs)   bands (ev):

   -70.9119 -68.3113 -37.7548 -37.2565 -36.5290 -34.7730 -34.2577 -33.9278
    12.3720  12.9309  14.7087  15.6208  16.5437  16.6890  16.8115  17.1029
    17.2690  19.2358  19.4629  19.6098  30.3277  31.2368  37.1963  37.3838

          k = 0.3000 0.3000 0.0000 (   784 PWs)   bands (ev):

   -70.9150 -68.3147 -37.7445 -37.2501 -36.5214 -34.7605 -34.2509 -33.9206
    12.1946  12.6715  14.7594  15.5032  16.5750  16.6902  16.8026  17.0666
    17.1626  19.2173  19.3110  19.5977  31.0601  31.9260  37.4855  37.6784

          k = 0.2833 0.2833 0.0000 (   784 PWs)   bands (ev):

   -70.9183 -68.3184 -37.7343 -37.2432 -36.5135 -34.7480 -34.2433 -33.9131
    11.9846  12.4005  14.8237  15.3790  16.5845  16.7306  16.7970  16.9998
    17.1063  19.2018  19.2031  19.5866  31.7853  32.6050  37.7943  37.9917

          k = 0.2667 0.2667 0.0000 (   784 PWs)   bands (ev):

   -70.9217 -68.3221 -37.7237 -37.2366 -36.5052 -34.7352 -34.2360 -33.9051
    11.7643  12.1290  14.8782  15.3290  16.5740  16.7703  16.8023  16.8813
    17.1103  19.0470  19.1914  19.5747  32.5429  33.3207  38.1191  38.3193

          k = 0.2500 0.2500 0.0000 (   780 PWs)   bands (ev):

   -70.9222 -68.3228 -37.7124 -37.2297 -36.4959 -34.7217 -34.2286 -33.8958
    11.5320  11.8585  14.9378  15.3102  16.6035  16.7512  16.8172  16.8624
    17.1468  18.8958  19.2241  19.6112  33.3103  34.0457  38.4651  38.6668

          k = 0.2333 0.2333 0.0000 (   780 PWs)   bands (ev):

   -70.9255 -68.3264 -37.7020 -37.2229 -36.4872 -34.7091 -34.2212 -33.8871
    11.2941  11.5928  14.9943  15.3088  16.5922  16.6205  16.8150  16.9213
    17.1876  18.7477  19.2214  19.6017  34.0810  34.7730  38.8167  39.0168

          k = 0.2167 0.2167 0.0000 (   776 PWs)   bands (ev):

   -70.9258 -68.3270 -37.6909 -37.2160 -36.4779 -34.6960 -34.2137 -33.8776
    11.0614  11.3386  15.0516  15.3719  16.5131  16.5852  16.8208  16.9863
    17.2801  18.6235  19.2263  19.6040  34.8820  35.5322  39.1781  39.3735

          k = 0.2000 0.2000 0.0000 (   772 PWs)   bands (ev):

   -70.9262 -68.3276 -37.6805 -37.2089 -36.4686 -34.6837 -34.2061 -33.8680
    10.8284  11.0921  15.1195  15.3813  16.3955  16.6187  16.8722  17.0629
    17.3143  18.4910  19.2725  19.6519  35.6474  36.2490  39.5509  39.7382

          k = 0.1833 0.1833 0.0000 (   772 PWs)   bands (ev):

   -70.9294 -68.3310 -37.6711 -37.2026 -36.4600 -34.6726 -34.1991 -33.8592
    10.6048  10.8587  15.1740  15.4054  16.2776  16.6222  16.8687  17.1266
    17.3572  18.3600  19.2906  19.6458  36.4094  36.9591  39.9140  40.0878

          k = 0.1667 0.1667 0.0000 (   768 PWs)   bands (ev):

   -70.9294 -68.3313 -37.6617 -37.1959 -36.4514 -34.6616 -34.1917 -33.8501
    10.3947  10.6415  15.2372  15.4340  16.2216  16.6412  16.8776  17.1987
    17.4007  18.2903  19.3238  19.6523  37.1601  37.6539  40.2706  40.4256

          k = 0.1500 0.1500 0.0000 (   764 PWs)   bands (ev):

   -70.9292 -68.3313 -37.6527 -37.1899 -36.4427 -34.6511 -34.1853 -33.8409
    10.1997  10.4414  15.2939  15.4654  16.1300  16.6665  16.9353  17.2646
    17.4416  18.1873  19.3650  19.7071  37.8991  38.3331  40.6178  40.7487

          k = 0.1333 0.1333 0.0000 (   760 PWs)   bands (ev):

   -70.9291 -68.3312 -37.6441 -37.1849 -36.4344 -34.6413 -34.1799 -33.8320
    10.0222  10.2602  15.3148  15.5373  16.0376  16.6970  16.9820  17.2958
    17.5175  18.0844  19.4121  19.7526  38.6304  39.0005  40.9370  41.0383

          k = 0.1167 0.1167 0.0000 (   758 PWs)   bands (ev):

   -70.9300 -68.3325 -37.6370 -37.1800 -36.4273 -34.6331 -34.1746 -33.8242
     9.8610  10.0967  15.3564  15.6029  15.9609  16.7319  16.9489  17.3455
    17.5894  17.9988  19.4596  19.7192  39.3109  39.6112  41.2111  41.2787

          k = 0.1000 0.1000 0.0000 (   766 PWs)   bands (ev):

   -70.9379 -68.3408 -37.6322 -37.1766 -36.4221 -34.6275 -34.1707 -33.8186
     9.7176   9.9519  15.3900  15.6000  15.8207  16.7306  16.8731  17.3864
    17.5931  17.8533  19.4718  19.6447  39.9306  40.1580  41.4385  41.4720

          k = 0.0833 0.0833 0.0000 (   772 PWs)   bands (ev):

   -70.9444 -68.3474 -37.6281 -37.1735 -36.4176 -34.6227 -34.1672 -33.8137
     9.5949   9.8282  15.4187  15.5797  15.7021  16.7456  16.8255  17.4220
    17.5794  17.7305  19.4979  19.5978  40.4911  40.6458  41.6225  41.6243

          k = 0.0667 0.0667 0.0000 (   777 PWs)   bands (ev):

   -70.9500 -68.3530 -37.6248 -37.1708 -36.4138 -34.6189 -34.1641 -33.8097
     9.4935   9.7262  15.4439  15.5218  15.6086  16.7607  16.8181  17.4533
    17.5282  17.6334  19.5222  19.5904  40.9780  41.0638  41.7382  41.7630

          k = 0.0500 0.0500 0.0000 (   773 PWs)   bands (ev):

   -70.9485 -68.3517 -37.6212 -37.1675 -36.4101 -34.6149 -34.1603 -33.8056
     9.4155   9.6476  15.4911  15.5240  15.5945  16.8094  16.8221  17.5048
    17.5334  17.6139  19.5780  19.5934  41.3947  41.4187  41.8165  41.8617

          k = 0.0333 0.0333 0.0000 (   769 PWs)   bands (ev):

   -70.9467 -68.3499 -37.6183 -37.1652 -36.4070 -34.6116 -34.1579 -33.8022
     9.3596   9.5914  15.5255  15.5285  15.5964  16.8250  16.8548  17.5371
    17.5455  17.6112  19.5985  19.6253  41.6822  41.7081  41.8663  41.9014

          k = 0.0167 0.0167 0.0000 (   767 PWs)   bands (ev):

   -70.9459 -68.3492 -37.6165 -37.1642 -36.4052 -34.6096 -34.1568 -33.8001
     9.3260   9.5575  15.5287  15.5542  15.5857  16.8464  16.8583  17.5480
    17.5660  17.5987  19.6229  19.6288  41.8462  41.8930  41.9014  41.9047

          k = 0.0000 0.0000 0.0000 (   767 PWs)   bands (ev):

   -70.9461 -68.3494 -37.6160 -37.1638 -36.4046 -34.6091 -34.1564 -33.7995
     9.3146   9.5461  15.5274  15.5540  15.5835  16.8495  16.8577  17.5470
    17.5663  17.5965  19.6272  19.6281  41.9014  41.9014  41.9014  41.9713

          k = 0.0167 0.0167 0.0167 (   767 PWs)   bands (ev):

   -70.9458 -68.3490 -37.6166 -37.1645 -36.4053 -34.6098 -34.1572 -33.8003
     9.3317   9.5632  15.5282  15.5556  15.5867  16.8477  16.8558  17.5468
    17.5677  17.5997  19.6245  19.6255  41.8457  41.8461  41.9023  41.9027

          k = 0.0333 0.0333 0.0333 (   773 PWs)   bands (ev):

   -70.9492 -68.3524 -37.6194 -37.1672 -36.4081 -34.6129 -34.1602 -33.8034
     9.3816   9.6135  15.4945  15.5224  15.5820  16.8152  16.8239  17.5103
    17.5343  17.5991  19.5899  19.5922  41.6758  41.6774  41.6939  41.6957

          k = 0.0500 0.0500 0.0500 (   773 PWs)   bands (ev):

   -70.9476 -68.3507 -37.6226 -37.1705 -36.4115 -34.6166 -34.1640 -33.8071
     9.4660   9.6985  15.4794  15.5065  15.6336  16.8064  16.8162  17.4900
    17.5143  17.6560  19.5769  19.5806  41.3540  41.3586  41.3952  41.3993

          k = 0.0667 0.0667 0.0667 (   767 PWs)   bands (ev):

   -70.9410 -68.3441 -37.6262 -37.1742 -36.4155 -34.6208 -34.1683 -33.8113
     9.5845   9.8176  15.4595  15.4850  15.8233  16.8014  16.8129  17.4632
    17.4868  17.8483  19.5665  19.5720  40.9004  40.9091  41.0123  41.0200

          k = 0.0833 0.0833 0.0833 (   764 PWs)   bands (ev):

   -70.9363 -68.3392 -37.6315 -37.1794 -36.4209 -34.6269 -34.1744 -33.8171
     9.7344   9.9688  15.4450  15.4686  15.9343  16.7982  16.8115  17.4400
    17.4621  17.9669  19.5570  19.5645  40.3607  40.3744  40.5463  40.5586

          k = 0.1000 0.1000 0.1000 (   758 PWs)   bands (ev):

   -70.9290 -68.3313 -37.6375 -37.1852 -36.4270 -34.6339 -34.1813 -33.8234
     9.9156  10.1518  15.4100  15.4316  16.0545  16.8530  16.8690  17.3953
    17.4154  18.0961  19.6043  19.6140  39.7607  39.7796  40.0176  40.0349

          k = 0.1167 0.1167 0.1167 (   764 PWs)   bands (ev):

   -70.9301 -68.3320 -37.6463 -37.1935 -36.4353 -34.6441 -34.1911 -33.8321
    10.1225  10.3621  15.3536  15.3713  16.1011  16.8295  16.8496  17.3286
    17.3456  18.1561  19.5750  19.5880  39.1007  39.1246  39.4213  39.4436

          k = 0.1333 0.1333 0.1333 (   758 PWs)   bands (ev):

   -70.9223 -68.3240 -37.6546 -37.2011 -36.4429 -34.6537 -34.2002 -33.8396
    10.3580  10.6021  15.3493  15.3631  16.2377  16.8418  16.8660  17.3098
    17.3239  18.3039  19.5802  19.5965  38.4318  38.4605  38.8098  38.8371

          k = 0.1500 0.1500 0.1500 (   763 PWs)   bands (ev):

   -70.9223 -68.3237 -37.6652 -37.2107 -36.4525 -34.6659 -34.2115 -33.8494
    10.6195  10.8694  15.2642  15.2763  16.4004  16.8022  16.8294  17.2105
    17.2230  18.4784  19.5386  19.5572  37.7377  37.7705  38.1661  38.1978

          k = 0.1667 0.1667 0.1667 (   772 PWs)   bands (ev):

   -70.9250 -68.3262 -37.6770 -37.2214 -36.4629 -34.6796 -34.2240 -33.8599
    10.9015  11.1599  15.1441  15.1520  16.5899  16.7509  16.7844  17.0805
    17.0901  18.6811  19.4845  19.5067  37.0103  37.0468  37.4810  37.5165

          k = 0.1833 0.1833 0.1833 (   766 PWs)   bands (ev):

   -70.9166 -68.3176 -37.6874 -37.2303 -36.4717 -34.6918 -34.2347 -33.8684
    11.2052  11.4751  15.1148  15.1194  16.7550  16.7848  16.8395  17.0347
    17.0433  18.9163  19.4955  19.5205  36.3327  36.3723  36.8445  36.8835

          k = 0.2000 0.2000 0.2000 (   772 PWs)   bands (ev):

   -70.9172 -68.3178 -37.6999 -37.2410 -36.4820 -34.7063 -34.2473 -33.8785
    11.5170  11.8046  15.0190  15.0207  16.7506  16.7903  16.9045  16.9322
    17.0029  19.0731  19.4919  19.5195  35.6371  35.6794  36.1843  36.2261

          k = 0.2167 0.2167 0.2167 (   772 PWs)   bands (ev):

   -70.9132 -68.3135 -37.7114 -37.2509 -36.4918 -34.7198 -34.2590 -33.8880
    11.8463  12.1553  14.9373  14.9374  16.7413  16.7825  16.8377  16.8592
    17.2401  19.3248  19.5083  19.5377  34.9646  35.0091  35.5457  35.5900

          k = 0.2333 0.2333 0.2333 (   784 PWs)   bands (ev):

   -70.9181 -68.3181 -37.7243 -37.2623 -36.5029 -34.7347 -34.2723 -33.8994
    12.1823  12.5187  14.8017  14.8029  16.6273  16.6498  16.7524  16.7750
    17.4958  19.4505  19.4813  19.5870  34.2699  34.3164  34.8795  34.9260

          k = 0.2500 0.2500 0.2500 (   784 PWs)   bands (ev):

   -70.9142 -68.3139 -37.7353 -37.2719 -36.5124 -34.7474 -34.2835 -33.9089
    12.5201  12.8922  14.7247  14.7270  16.5438  16.5547  16.7588  16.7879
    17.7960  19.4751  19.5072  19.8693  33.6263  33.6743  34.2658  34.3140

          k = 0.2667 0.2667 0.2667 (   778 PWs)   bands (ev):

   -70.9059 -68.3052 -37.7445 -37.2803 -36.5211 -34.7583 -34.2934 -33.9178
    12.8624  13.2753  14.6736  14.6758  16.4713  16.4779  16.7959  16.8274
    18.1821  19.5234  19.5560  20.2337  33.0131  33.0624  33.6831  33.7329

          k = 0.2833 0.2833 0.2833 (   778 PWs)   bands (ev):

   -70.9025 -68.3014 -37.7540 -37.2891 -36.5301 -34.7693 -34.3035 -33.9272
    13.1861  13.6538  14.6081  14.6110  16.3845  16.3888  16.8143  16.8471
    18.5355  19.5509  19.5841  20.5526  32.4042  32.4543  33.1015  33.1525

          k = 0.3000 0.3000 0.3000 (   784 PWs)   bands (ev):

   -70.9037 -68.3022 -37.7633 -37.2982 -36.5394 -34.7799 -34.3139 -33.9373
    13.4915  14.0251  14.5015  14.5047  16.2603  16.2630  16.8251  16.8587
    18.9204  19.5712  19.6049  20.8911  31.7776  31.8284  32.4974  32.5493

          k = 0.3167 0.3167 0.3167 (   778 PWs)   bands (ev):

   -70.8963 -68.2948 -37.7700 -37.3051 -36.5468 -34.7875 -34.3218 -33.9455
    13.7770  14.3859  14.4867  14.4908  16.2203  16.2223  16.8601  16.8939
    19.3641  19.6145  19.6504  21.2786  31.2226  31.2737  31.9693  32.0221

          k = 0.3333 0.3333 0.3333 (   772 PWs)   bands (ev):

   -70.8892 -68.2874 -37.7752 -37.3114 -36.5539 -34.7935 -34.3289 -33.9537
    14.0346  14.4818  14.4853  14.7292  16.1847  16.1865  16.9020  16.9345
    19.6665  19.6896  19.8443  21.6740  30.6923  30.7435  31.4664  31.5204

          k = 0.3500 0.3500 0.3500 (   778 PWs)   bands (ev):

   -70.8914 -68.2895 -37.7812 -37.3186 -36.5617 -34.7999 -34.3369 -33.9630
    14.2450  14.4259  14.4299  15.0371  16.1079  16.1099  16.8813  16.9132
    19.6565  19.6844  20.3272  22.0776  30.1382  30.1891  30.9336  30.9877

          k = 0.3667 0.3667 0.3667 (   781 PWs)   bands (ev):

   -70.8918 -68.2898 -37.7852 -37.3247 -36.5687 -34.8042 -34.3435 -33.9719
    14.4046  14.4087  14.4359  15.3220  16.0614  16.0631  16.8462  16.8758
    19.6344  19.6612  20.8632  22.5236  29.6271  29.6774  30.4462  30.5007

          k = 0.3833 0.3833 0.3833 (   781 PWs)   bands (ev):

   -70.8903 -68.2881 -37.7880 -37.3296 -36.5745 -34.8070 -34.3487 -33.9796
    14.3952  14.3972  14.5720  15.5622  16.0242  16.0259  16.8588  16.8863
    19.6580  19.6830  21.4371  22.9989  29.1336  29.1830  29.9762  30.0297

          k = 0.4000 0.4000 0.4000 (   778 PWs)   bands (ev):

   -70.8869 -68.2847 -37.7895 -37.3333 -36.5793 -34.8083 -34.3525 -33.9862
    14.4167  14.4179  14.6721  15.7597  16.0177  16.0194  16.8708  16.8957
    19.6806  19.7033  22.0539  23.5160  28.6759  28.7242  29.5446  29.5963

          k = 0.4167 0.4167 0.4167 (   778 PWs)   bands (ev):

   -70.8858 -68.2835 -37.7906 -37.3366 -36.5836 -34.8091 -34.3557 -33.9925
    14.4244  14.4247  14.7322  15.9105  16.0002  16.0018  16.8812  16.9031
    19.7013  19.7213  22.7044  24.0686  28.2241  28.2709  29.1188  29.1659

          k = 0.4333 0.4333 0.4333 (   778 PWs)   bands (ev):

   -70.8849 -68.2825 -37.7910 -37.3391 -36.5871 -34.8092 -34.3579 -33.9977
    14.4398  14.4415  14.7568  15.9921  15.9936  16.0161  16.8910  16.9094
    19.7206  19.7373  23.3895  24.6612  27.7936  27.8388  28.7136  28.7560

          k = 0.4500 0.4500 0.4500 (   772 PWs)   bands (ev):

   -70.8797 -68.2774 -37.7901 -37.3400 -36.5891 -34.8080 -34.3584 -34.0013
    14.4763  14.4803  14.7962  16.0047  16.0059  16.1133  16.9138  16.9279
    19.7514  19.7644  24.1549  25.3529  27.3948  27.4381  28.3405  28.3788

          k = 0.4667 0.4667 0.4667 (   784 PWs)   bands (ev):

   -70.8880 -68.2857 -37.7916 -37.3427 -36.5921 -34.8094 -34.3609 -34.0058
    14.4779  14.4829  14.6881  15.9905  15.9919  16.0770  16.8628  16.8732
    19.7072  19.7164  24.8463  25.9567  26.9815  27.0225  27.9447  27.9792

          k = 0.4833 0.4833 0.4833 (   784 PWs)   bands (ev):

   -70.8881 -68.2858 -37.7915 -37.3434 -36.5932 -34.8091 -34.3612 -34.0077
    14.5113  14.5187  14.6287  16.0053  16.0070  16.0645  16.8653  16.8708
    19.7141  19.7189  25.5875  26.5953  26.6506  26.6633  27.6021  27.6331

          k = 0.5000 0.5000 0.5000 (   784 PWs)   bands (ev):

   -70.8881 -68.2858 -37.7914 -37.3436 -36.5936 -34.8090 -34.3613 -34.0083
    14.5451  14.5538  14.5626  16.0248  16.0283  16.0284  16.8676  16.8682
    19.7179  19.7183  26.2614  26.2937  26.3276  27.2730  27.2972  27.3200

          k = 0.4833 0.5167 0.4833 (   784 PWs)   bands (ev):

   -70.8880 -68.2858 -37.7915 -37.3434 -36.5933 -34.8092 -34.3613 -34.0077
    14.4708  14.5877  14.6008  15.9727  16.0512  16.0545  16.8653  16.8712
    19.7139  19.7189  25.9600  25.9956  26.8359  26.9929  27.0126  27.8011

          k = 0.4667 0.5333 0.4667 (   784 PWs)   bands (ev):

   -70.8879 -68.2856 -37.7919 -37.3431 -36.5924 -34.8097 -34.3614 -34.0060
    14.3858  14.6259  14.6422  15.9088  16.0796  16.0841  16.8639  16.8758
    19.7062  19.7163  25.6716  25.7048  26.7173  26.7403  27.0751  27.9885

          k = 0.4500 0.5500 0.4500 (   781 PWs)   bands (ev):

   -70.8854 -68.2831 -37.7921 -37.3423 -36.5909 -34.8101 -34.3613 -34.0029
    14.2697  14.6803  14.7005  15.8126  16.1270  16.1330  16.8959  16.9143
    19.7243  19.7396  25.4266  25.4576  26.4967  26.5156  27.0931  27.9891

          k = 0.4333 0.5667 0.4333 (   775 PWs)   bands (ev):

   -70.8810 -68.2785 -37.7925 -37.3413 -36.5889 -34.8107 -34.3614 -33.9990
    14.1929  14.7222  14.7454  15.7482  16.1674  16.1746  16.9532  16.9773
    19.7613  19.7815  25.2051  25.2339  26.2978  26.3132  27.0660  27.9631

          k = 0.4167 0.5833 0.4167 (   775 PWs)   bands (ev):

   -70.8811 -68.2784 -37.7939 -37.3414 -36.5876 -34.8125 -34.3627 -33.9958
    14.1307  14.7398  14.7651  15.6956  16.1888  16.1970  16.9664  16.9950
    19.7514  19.7763  24.9884  25.0154  26.0992  26.1116  27.0204  27.9247

          k = 0.4000 0.6000 0.4000 (   775 PWs)   bands (ev):

   -70.8808 -68.2781 -37.7958 -37.3417 -36.5866 -34.8147 -34.3644 -33.9925
    14.0835  14.7503  14.7779  15.6567  16.2107  16.2201  16.9714  17.0044
    19.7234  19.7523  24.8150  24.8403  25.9449  25.9548  26.9830  27.8963

          k = 0.3833 0.6167 0.3833 (   775 PWs)   bands (ev):

   -70.8801 -68.2774 -37.7979 -37.3425 -36.5859 -34.8171 -34.3666 -33.9897
    14.0567  14.7499  14.7791  15.6376  16.2277  16.2383  16.9816  17.0177
    19.6928  19.7251  24.6742  24.6982  25.8223  25.8302  26.9537  27.8759

          k = 0.3667 0.6333 0.3667 (   772 PWs)   bands (ev):

   -70.8771 -68.2743 -37.8000 -37.3433 -36.5853 -34.8196 -34.3688 -33.9870
    14.0779  14.7370  14.7671  15.6626  16.2380  16.2496  17.0103  17.0483
    19.6737  19.7085  24.5667  24.5899  25.7317  25.7382  26.9549  27.8861

          k = 0.3500 0.6500 0.3500 (   766 PWs)   bands (ev):

   -70.8718 -68.2688 -37.8019 -37.3442 -36.5852 -34.8219 -34.3710 -33.9852
    14.1116  14.7159  14.7458  15.7031  16.2425  16.2545  17.0836  17.1218
    19.6942  19.7303  24.4957  24.5186  25.6763  25.6823  26.9575  27.8953

          k = 0.3333 0.6667 0.3333 (   772 PWs)   bands (ev):

   -70.8751 -68.2721 -37.8056 -37.3473 -36.5875 -34.8259 -34.3749 -33.9868
    14.1337  14.6701  14.6991  15.7393  16.2302  16.2427  17.0541  17.0913
    19.6079  19.6444  24.4506  24.4740  25.6419  25.6483  26.9299  27.8691

          k = 0.3167 0.6833 0.3167 (   772 PWs)   bands (ev):

   -70.8737 -68.2705 -37.8087 -37.3500 -36.5900 -34.8294 -34.3784 -33.9887
    14.2047  14.6139  14.6413  15.8232  16.2092  16.2217  17.0835  17.1182
    19.5783  19.6140  24.4428  24.4672  25.6415  25.6491  26.9295  27.8693

          k = 0.3000 0.7000 0.3000 (   772 PWs)   bands (ev):

   -70.8719 -68.2686 -37.8120 -37.3533 -36.5933 -34.8330 -34.3821 -33.9922
    14.3047  14.5435  14.5686  15.9383  16.1752  16.1873  17.1210  17.1519
    19.5578  19.5914  24.4666  24.4926  25.6676  25.6771  26.9366  27.8742

          k = 0.2833 0.7167 0.2833 (   769 PWs)   bands (ev):

   -70.8676 -68.2642 -37.8148 -37.3567 -36.5974 -34.8361 -34.3854 -33.9972
    14.4223  14.4878  14.5092  16.0770  16.1504  16.1612  17.1662  17.1921
    19.5456  19.5760  24.5487  24.5766  25.7527  25.7648  26.9260  27.8564

          k = 0.2667 0.7333 0.2667 (   769 PWs)   bands (ev):

   -70.8655 -68.2618 -37.8185 -37.3609 -36.6024 -34.8401 -34.3896 -34.0036
    14.3885  14.4071  14.5762  16.0871  16.0967  16.2499  17.2200  17.2403
    19.5501  19.5765  24.6295  24.6602  25.8228  25.8383  26.9403  27.8617

          k = 0.2500 0.7500 0.2500 (   766 PWs)   bands (ev):

   -70.8608 -68.2568 -37.8219 -37.3652 -36.6078 -34.8439 -34.3935 -34.0105
    14.2920  14.3079  14.7664  16.0181  16.0266  16.4626  17.2928  17.3071
    19.5833  19.6049  24.7404  24.7744  25.9162  25.9360  26.9694  27.8790

          k = 0.2333 0.7667 0.2333 (   772 PWs)   bands (ev):

   -70.8624 -68.2583 -37.8267 -37.3710 -36.6148 -34.8490 -34.3989 -34.0196
    14.1602  14.1735  14.9641  15.9176  15.9251  16.6877  17.3133  17.3208
    19.5718  19.5880  24.8553  24.8932  26.0013  26.0261  26.9926  27.8855

          k = 0.2167 0.7833 0.2167 (   772 PWs)   bands (ev):

   -70.8595 -68.2551 -37.8308 -37.3763 -36.6216 -34.8534 -34.4037 -34.0285
    14.0426  14.0534  15.1895  15.8233  15.8296  16.9433  17.3787  17.3807
    19.6127  19.6233  25.0076  25.0497  26.1197  26.1498  27.0195  27.8914

          k = 0.2000 0.8000 0.2000 (   769 PWs)   bands (ev):

   -70.8543 -68.2498 -37.8347 -37.3815 -36.6282 -34.8577 -34.4083 -34.0372
    13.9238  13.9324  15.4843  15.7234  15.7298  17.2632  17.4423  17.4545
    19.6657  19.6706  25.1789  25.2255  26.2489  26.2850  27.0710  27.9209

          k = 0.1833 0.8167 0.1833 (   775 PWs)   bands (ev):

   -70.8556 -68.2508 -37.8398 -37.3879 -36.6358 -34.8633 -34.4143 -34.0472
    13.7894  13.7968  15.6038  15.6071  15.7226  17.4586  17.4753  17.5689
    19.6984  19.6996  25.3458  25.3974  26.3610  26.4040  27.0966  27.9135

          k = 0.1667 0.8333 0.1667 (   784 PWs)   bands (ev):

   -70.8590 -68.2541 -37.8453 -37.3946 -36.6437 -34.8692 -34.4207 -34.0575
    13.6369  13.6423  15.4725  15.4747  15.9911  17.4758  17.4846  17.8674
    19.6988  19.7058  25.5337  25.5903  26.4890  26.5391  27.1239  27.9037

          k = 0.1500 0.8500 0.1500 (   778 PWs)   bands (ev):

   -70.8515 -68.2461 -37.8488 -37.3993 -36.6497 -34.8730 -34.4251 -34.0653
    13.5631  13.5668  15.4003  15.4018  16.2833  17.5440  17.5593  18.2040
    19.7696  19.7820  25.7716  25.8335  26.6659  26.7241  27.1569  27.8938

          k = 0.1333 0.8667 0.1333 (   778 PWs)   bands (ev):

   -70.8485 -68.2429 -37.8531 -37.4046 -36.6560 -34.8777 -34.4303 -34.0732
    13.4588  13.4615  15.3026  15.3037  16.5644  17.6023  17.6227  18.5351
    19.8355  19.8531  25.9886  26.0560  26.8107  26.8784  27.1896  27.8762

          k = 0.1167 0.8833 0.1167 (   778 PWs)   bands (ev):

   -70.8454 -68.2396 -37.8572 -37.4095 -36.6617 -34.8822 -34.4353 -34.0802
    13.3638  13.3656  15.2120  15.2129  16.8407  17.6575  17.6823  18.8646
    19.9013  19.9236  26.2075  26.2807  26.9503  27.0301  27.2242  27.8525

          k = 0.1000 0.9000 0.1000 (   784 PWs)   bands (ev):

   -70.8472 -68.2412 -37.8619 -37.4148 -36.6675 -34.8872 -34.4407 -34.0872
    13.2630  13.2639  15.1168  15.1176  17.0221  17.6991  17.7277  19.1078
    19.9546  19.9812  26.4203  26.4993  27.0713  27.1722  27.2465  27.7959

          k = 0.0833 0.9167 0.0833 (   772 PWs)   bands (ev):

   -70.8357 -68.2293 -37.8637 -37.4171 -36.6705 -34.8894 -34.4432 -34.0906
    13.2387  13.2398  15.0856  15.0864  17.2775  17.8152  17.8466  19.4170
    20.0833  20.1136  26.6362  26.7210  27.1715  27.3035  27.3321  27.7694

          k = 0.0667 0.9333 0.0667 (   766 PWs)   bands (ev):

   -70.8294 -68.2228 -37.8661 -37.4197 -36.6735 -34.8920 -34.4460 -34.0940
    13.1902  13.1913  15.0363  15.0371  17.5510  17.8749  17.9087  19.7405
    20.1550  20.1884  26.8210  26.9103  27.2281  27.3970  27.4456  27.7436

          k = 0.0500 0.9500 0.0500 (   769 PWs)   bands (ev):

   -70.8300 -68.2235 -37.8690 -37.4228 -36.6767 -34.8952 -34.4494 -34.0977
    13.1211  13.1220  14.9715  14.9723  17.7173  17.9017  17.9374  19.9541
    20.1920  20.2278  26.9727  27.0626  27.2666  27.4787  27.5409  27.7158

          k = 0.0333 0.9667 0.0333 (   775 PWs)   bands (ev):

   -70.8331 -68.2269 -37.8717 -37.4256 -36.6795 -34.8981 -34.4524 -34.1008
    13.0461  13.0468  14.9034  14.9042  17.8418  17.9158  17.9523  20.1168
    20.2136  20.2508  27.0850  27.1669  27.3100  27.5422  27.6115  27.7011

          k = 0.0167 0.9833 0.0167 (   784 PWs)   bands (ev):

   -70.8392 -68.2329 -37.8741 -37.4280 -36.6818 -34.9007 -34.4550 -34.1034
    12.9935  12.9938  14.8562  14.8568  17.8552  17.8924  17.9272  20.1547
    20.1953  20.2309  27.1486  27.2204  27.3554  27.5789  27.6490  27.7051

          k = 0.0000 1.0000 0.0000 (   784 PWs)   bands (ev):

   -70.8390 -68.2328 -37.8745 -37.4284 -36.6823 -34.9012 -34.4554 -34.1039
    12.9858  12.9861  14.8486  14.8493  17.8693  17.9031  17.9366  20.1744
    20.2093  20.2431  27.1676  27.2379  27.3757  27.5899  27.6595  27.7131

     Writing all to output data dir /home/ftanzim/Fe-qe/out/fe.save/

     init_run     :      0.22s CPU      0.23s WALL (       1 calls)
     electrons    :      1.82s CPU      1.87s WALL (       1 calls)

     Called by init_run:
     wfcinit      :      0.00s CPU      0.00s WALL (       1 calls)
     wfcinit:atom :      0.00s CPU      0.00s WALL (      22 calls)
     wfcinit:wfcr :      0.09s CPU      0.09s WALL (      22 calls)
     potinit      :      0.07s CPU      0.08s WALL (       1 calls)
     hinit0       :      0.12s CPU      0.13s WALL (       1 calls)

     Called by electrons:
     c_bands      :      1.81s CPU      1.87s WALL (       1 calls)
     v_of_rho     :      0.03s CPU      0.03s WALL (       1 calls)
     v_h          :      0.00s CPU      0.00s WALL (       1 calls)
     v_xc         :      0.03s CPU      0.03s WALL (       1 calls)

     Called by c_bands:
     init_us_2    :      0.00s CPU      0.00s WALL (      22 calls)
     init_us_2:cp :      0.00s CPU      0.00s WALL (      22 calls)
     cegterg      :      1.66s CPU      1.71s WALL (      47 calls)

     Called by sum_band:

     Called by *egterg:
     cdiaghg      :      0.51s CPU      0.53s WALL (     719 calls)
     cegterg:over :      0.06s CPU      0.07s WALL (     697 calls)
     cegterg:upda :      0.03s CPU      0.03s WALL (     697 calls)
     cegterg:last :      0.04s CPU      0.04s WALL (     303 calls)
     h_psi        :      1.06s CPU      1.10s WALL (     766 calls)
     g_psi        :      0.01s CPU      0.01s WALL (     697 calls)

     Called by h_psi:
     h_psi:calbec :      0.03s CPU      0.04s WALL (     766 calls)
     vloc_psi     :      0.98s CPU      1.01s WALL (     766 calls)
     add_vuspsi   :      0.04s CPU      0.04s WALL (     766 calls)

     General routines
     calbec       :      0.03s CPU      0.03s WALL (     766 calls)
     fft          :      0.10s CPU      0.11s WALL (      27 calls)
     ffts         :      0.04s CPU      0.04s WALL (       4 calls)
     fftw         :      0.69s CPU      0.71s WALL (   32068 calls)
     interpolate  :      0.04s CPU      0.04s WALL (       4 calls)
     davcio       :      0.00s CPU      0.00s WALL (      44 calls)

     Parallel routines

     PWSCF        :      2.67s CPU      2.85s WALL


   This run was terminated on:  15:18:24  14Oct2023            

=------------------------------------------------------------------------------=
   JOB DONE.
=------------------------------------------------------------------------------=
