
     Program PWSCF v.7.1 starts on 13Feb2024 at 14:50:22 

     This program is part of the open-source Quantum ESPRESSO suite
     for quantum simulation of materials; please cite
         "P. Giannozzi et al., J. Phys.:Condens. Matter 21 395502 (2009);
         "P. Giannozzi et al., J. Phys.:Condens. Matter 29 465901 (2017);
         "P. Giannozzi et al., J. Chem. Phys. 152 154105 (2020);
          URL http://www.quantum-espresso.org", 
     in publications or presentations arising from this work. More details at
     http://www.quantum-espresso.org/quote

     Parallel version (MPI & OpenMP), running on      32 processor cores
     Number of MPI processes:                32
     Threads/MPI process:                     1

     MPI processes distributed on     1 nodes
     202904 MiB available memory on the printing compute node when the environment starts

     Reading input from MST-scf.in
Warning: card &CELL ignored
Warning: card        CELL_DYNAMICS = 'BFGS' ignored
Warning: card                PRESS = 0.D0 ignored
Warning: card       PRESS_CONV_THR = 0.01 ignored
Warning: card /&END ignored

     Current dimensions of program PWSCF are:
     Max number of different atomic species (ntypx) = 10
     Max number of k-points (npk) =  40000
     Max angular momentum in pseudopotentials (lmaxx) =  4

     Fixed quantization axis for GGA:     0.000000    0.000000    1.000000
     Message from routine setup:
     the system is metallic, specify occupations
     Message from routine setup:
     using ibrav=0 with symmetry is DISCOURAGED, use correct ibrav instead

     R & G space division:  proc/nbgrp/npool/nimage =      32
     Subspace diagonalization in iterative solution of the eigenvalue problem:
     one sub-group per band group will be used
     scalapack distributed-memory algorithm (size of sub-group:  2*  2 procs)


     Parallelization info
     --------------------
     sticks:   dense  smooth     PW     G-vecs:    dense   smooth      PW
     Min         249     249     72                 8060     8060    1254
     Max         250     250     73                 8062     8062    1256
     Sum        7989    7989   2315               257953   257953   40153

     Using Slab Decomposition



     bravais-lattice index     =            0
     lattice parameter (alat)  =      26.2798  a.u.
     unit-cell volume          =    1452.5474 (a.u.)^3
     number of atoms/cell      =            7
     number of atomic types    =            3
     number of electrons       =       157.00
     number of Kohn-Sham states=          158
     kinetic-energy cutoff     =     120.0000  Ry
     charge density cutoff     =     480.0000  Ry
     scf convergence threshold =      1.0E-13
     mixing beta               =       0.4000
     number of iterations used =            8  plain     mixing
     Exchange-correlation= PBESOL
                           (   1   4  10   8   0   0   0)
     Noncollinear calculation with spin-orbit


     celldm(1)=  26.279834  celldm(2)=   0.000000  celldm(3)=   0.000000
     celldm(4)=   0.000000  celldm(5)=   0.000000  celldm(6)=   0.000000

     crystal axes: (cart. coord. in units of alat)
               a(1) = (   0.153210   0.088456   0.984227 )  
               a(2) = (  -0.153210   0.088456   0.984227 )  
               a(3) = (   0.000000  -0.176912   0.984227 )  

     reciprocal axes: (cart. coord. in units 2 pi/alat)
               b(1) = (  3.263485  1.884174  0.338675 )  
               b(2) = ( -3.263485  1.884174  0.338675 )  
               b(3) = (  0.000000 -3.768348  0.338675 )  


     PseudoPot. # 1 for Mn read from file:
     /gpfs/work4/0/prjs0822/MST-120-14/pseudo/Mn.upf
     MD5 check sum: 9b50e869e35b4674015a8a9b1d40c02b
     Pseudo is Norm-conserving + core correction, Zval = 15.0
     Generated using ONCVPSP code by D. R. Hamann
     Using radial grid of 1448 points, 10 beta functions with: 
                l(1) =   0
                l(2) =   0
                l(3) =   1
                l(4) =   1
                l(5) =   1
                l(6) =   1
                l(7) =   2
                l(8) =   2
                l(9) =   2
               l(10) =   2

     PseudoPot. # 2 for Sb read from file:
     /gpfs/work4/0/prjs0822/MST-120-14/pseudo/Sb.upf
     MD5 check sum: d7e4a923c9e5eb416dd6a712e5c7b634
     Pseudo is Norm-conserving + core correction, Zval = 23.0
     Generated using ONCVPSP code by D. R. Hamann
     Using radial grid of 1452 points, 10 beta functions with: 
                l(1) =   0
                l(2) =   0
                l(3) =   1
                l(4) =   1
                l(5) =   1
                l(6) =   1
                l(7) =   2
                l(8) =   2
                l(9) =   2
               l(10) =   2

     PseudoPot. # 3 for Te read from file:
     /gpfs/work4/0/prjs0822/MST-120-14/pseudo/Te.upf
     MD5 check sum: 79d0c337239bdfc348e5dd475cdca76d
     Pseudo is Norm-conserving + core correction, Zval = 24.0
     Generated using ONCVPSP code by D. R. Hamann
     Using radial grid of 1310 points, 10 beta functions with: 
                l(1) =   0
                l(2) =   0
                l(3) =   1
                l(4) =   1
                l(5) =   1
                l(6) =   1
                l(7) =   2
                l(8) =   2
                l(9) =   2
               l(10) =   2

     atomic species   valence    mass     pseudopotential
        Mn            15.00     1.00000     Mn( 1.00)
        Sb            23.00     1.00000     Sb( 1.00)
        Te            24.00     1.00000     Te( 1.00)

     12 Sym. Ops., with inversion, found


                                    s                        frac. trans.

      isym =  1     identity                                     

 Time Reversal            0
 cryst.   s( 1) = (     1          0          0      )
                  (     0          1          0      )
                  (     0          0          1      )

 cart.    s( 1) = (  1.0000000  0.0000000  0.0000000 )
                  ( -0.0000000  1.0000000 -0.0000000 )
                  (  0.0000000  0.0000000  1.0000000 )


      isym =  2     180 deg rotation - cart. axis [1,0,0]        

 Time Reversal            1
 cryst.   s( 2) = (     0         -1          0      )
                  (    -1          0          0      )
                  (     0          0         -1      )

 cart.    s( 2) = (  1.0000000 -0.0000000 -0.0000000 )
                  ( -0.0000000 -1.0000000  0.0000000 )
                  (  0.0000000 -0.0000000 -1.0000000 )


      isym =  3     120 deg rotation - cryst. axis [0,0,1]       

 Time Reversal            0
 cryst.   s( 3) = (     0          1          0      )
                  (     0          0          1      )
                  (     1          0          0      )

 cart.    s( 3) = ( -0.5000000 -0.8660254  0.0000000 )
                  (  0.8660254 -0.5000000 -0.0000000 )
                  (  0.0000000 -0.0000000  1.0000000 )


      isym =  4     120 deg rotation - cryst. axis [0,0,-1]      

 Time Reversal            0
 cryst.   s( 4) = (     0          0          1      )
                  (     1          0          0      )
                  (     0          1          0      )

 cart.    s( 4) = ( -0.5000000  0.8660254  0.0000000 )
                  ( -0.8660254 -0.5000000 -0.0000000 )
                  ( -0.0000000 -0.0000000  1.0000000 )


      isym =  5     180 deg rotation - cryst. axis [0,1,0]       

 Time Reversal            1
 cryst.   s( 5) = (    -1          0          0      )
                  (     0          0         -1      )
                  (     0         -1          0      )

 cart.    s( 5) = ( -0.5000000 -0.8660254 -0.0000000 )
                  ( -0.8660254  0.5000000  0.0000000 )
                  ( -0.0000000  0.0000000 -1.0000000 )


      isym =  6     180 deg rotation - cryst. axis [1,1,0]       

 Time Reversal            1
 cryst.   s( 6) = (     0          0         -1      )
                  (     0         -1          0      )
                  (    -1          0          0      )

 cart.    s( 6) = ( -0.5000000  0.8660254 -0.0000000 )
                  (  0.8660254  0.5000000  0.0000000 )
                  ( -0.0000000  0.0000000 -1.0000000 )


      isym =  7     inversion                                    

 Time Reversal            0
 cryst.   s( 7) = (    -1          0          0      )
                  (     0         -1          0      )
                  (     0          0         -1      )

 cart.    s( 7) = ( -1.0000000 -0.0000000 -0.0000000 )
                  (  0.0000000 -1.0000000  0.0000000 )
                  ( -0.0000000 -0.0000000 -1.0000000 )


      isym =  8     inv. 180 deg rotation - cart. axis [1,0,0]   

 Time Reversal            1
 cryst.   s( 8) = (     0          1          0      )
                  (     1          0          0      )
                  (     0          0          1      )

 cart.    s( 8) = ( -1.0000000  0.0000000  0.0000000 )
                  (  0.0000000  1.0000000 -0.0000000 )
                  ( -0.0000000  0.0000000  1.0000000 )


      isym =  9     inv. 120 deg rotation - cryst. axis [0,0,1]  

 Time Reversal            0
 cryst.   s( 9) = (     0         -1          0      )
                  (     0          0         -1      )
                  (    -1          0          0      )

 cart.    s( 9) = (  0.5000000  0.8660254 -0.0000000 )
                  ( -0.8660254  0.5000000  0.0000000 )
                  ( -0.0000000  0.0000000 -1.0000000 )


      isym = 10     inv. 120 deg rotation - cryst. axis [0,0,-1] 

 Time Reversal            0
 cryst.   s(10) = (     0          0         -1      )
                  (    -1          0          0      )
                  (     0         -1          0      )

 cart.    s(10) = (  0.5000000 -0.8660254 -0.0000000 )
                  (  0.8660254  0.5000000  0.0000000 )
                  (  0.0000000  0.0000000 -1.0000000 )


      isym = 11     inv. 180 deg rotation - cryst. axis [0,1,0]  

 Time Reversal            1
 cryst.   s(11) = (     1          0          0      )
                  (     0          0          1      )
                  (     0          1          0      )

 cart.    s(11) = (  0.5000000  0.8660254  0.0000000 )
                  (  0.8660254 -0.5000000 -0.0000000 )
                  (  0.0000000 -0.0000000  1.0000000 )


      isym = 12     inv. 180 deg rotation - cryst. axis [1,1,0]  

 Time Reversal            1
 cryst.   s(12) = (     0          0          1      )
                  (     0          1          0      )
                  (     1          0          0      )

 cart.    s(12) = (  0.5000000 -0.8660254  0.0000000 )
                  ( -0.8660254 -0.5000000 -0.0000000 )
                  (  0.0000000 -0.0000000  1.0000000 )


   Cartesian axes

     site n.     atom                  positions (alat units)
         1           Mn  tau(   1) = (   0.0000000   0.0000000   0.0000000  )
         2           Sb  tau(   2) = (  -0.0000000   0.1769122   0.7132986  )
         3           Sb  tau(   3) = (  -0.0000000   0.1769122   0.2709281  )
         4           Te  tau(   4) = (   0.1532104   0.0884561   0.1214536  )
         5           Te  tau(   5) = (   0.0000000   0.0000000   0.8627731  )
         6           Te  tau(   6) = (   0.1532104   0.0884561   0.5963626  )
         7           Te  tau(   7) = (  -0.0000000   0.0000000   0.3878640  )

   Crystallographic axes

     site n.     atom                  positions (cryst. coord.)
         1           Mn  tau(   1) = (  0.0000000  0.0000000  0.0000000  )
         2           Sb  tau(   2) = (  0.5749100  0.5749100 -0.4250900  )
         3           Sb  tau(   3) = (  0.4250900  0.4250900 -0.5749100  )
         4           Te  tau(   4) = (  0.7078000 -0.2922000 -0.2922000  )
         5           Te  tau(   5) = (  0.2922000  0.2922000  0.2922000  )
         6           Te  tau(   6) = (  0.8686400 -0.1313600 -0.1313600  )
         7           Te  tau(   7) = (  0.1313600  0.1313600  0.1313600  )

     number of k points=   288
                       cart. coord. in units 2pi/alat
        k(    1) = (   0.0000000   0.0000000   0.0000000), wk =   0.0003644
        k(    2) = (   0.0000000  -0.2691677   0.0241911), wk =   0.0021866
        k(    3) = (   0.0000000  -0.5383354   0.0483822), wk =   0.0021866
        k(    4) = (   0.0000000  -0.8075032   0.0725733), wk =   0.0021866
        k(    5) = (   0.0000000  -1.0766709   0.0967644), wk =   0.0021866
        k(    6) = (   0.0000000  -1.3458386   0.1209555), wk =   0.0021866
        k(    7) = (   0.0000000  -1.6150063   0.1451466), wk =   0.0021866
        k(    8) = (  -0.0000000   1.8841740  -0.1693377), wk =   0.0010933
        k(    9) = (  -0.2331061  -0.1345839   0.0483822), wk =   0.0021866
        k(   10) = (  -0.2331061  -0.4037516   0.0725733), wk =   0.0043732
        k(   11) = (  -0.2331061  -0.6729193   0.0967644), wk =   0.0043732
        k(   12) = (  -0.2331061  -0.9420870   0.1209555), wk =   0.0043732
        k(   13) = (  -0.2331061  -1.2112547   0.1451466), wk =   0.0043732
        k(   14) = (  -0.2331061  -1.4804224   0.1693377), wk =   0.0043732
        k(   15) = (  -0.2331061   2.0187579  -0.1451466), wk =   0.0043732
        k(   16) = (  -0.2331061   1.7495902  -0.1209555), wk =   0.0043732
        k(   17) = (  -0.2331061   1.4804224  -0.0967644), wk =   0.0043732
        k(   18) = (  -0.2331061   1.2112547  -0.0725733), wk =   0.0043732
        k(   19) = (  -0.2331061   0.9420870  -0.0483822), wk =   0.0043732
        k(   20) = (  -0.2331061   0.6729193  -0.0241911), wk =   0.0043732
        k(   21) = (  -0.2331061   0.4037516   0.0000000), wk =   0.0021866
        k(   22) = (  -0.4662122  -0.2691677   0.0967644), wk =   0.0021866
        k(   23) = (  -0.4662122  -0.5383354   0.1209555), wk =   0.0043732
        k(   24) = (  -0.4662122  -0.8075032   0.1451466), wk =   0.0043732
        k(   25) = (  -0.4662122  -1.0766709   0.1693377), wk =   0.0043732
        k(   26) = (  -0.4662122  -1.3458386   0.1935288), wk =   0.0043732
        k(   27) = (  -0.4662122   2.1533417  -0.1209555), wk =   0.0043732
        k(   28) = (  -0.4662122   1.8841740  -0.0967644), wk =   0.0043732
        k(   29) = (  -0.4662122   1.6150063  -0.0725733), wk =   0.0043732
        k(   30) = (  -0.4662122   1.3458386  -0.0483822), wk =   0.0043732
        k(   31) = (  -0.4662122   1.0766709  -0.0241911), wk =   0.0043732
        k(   32) = (  -0.4662122   0.8075032  -0.0000000), wk =   0.0021866
        k(   33) = (  -0.6993182  -0.4037516   0.1451466), wk =   0.0021866
        k(   34) = (  -0.6993182  -0.6729193   0.1693377), wk =   0.0043732
        k(   35) = (  -0.6993182  -0.9420870   0.1935288), wk =   0.0043732
        k(   36) = (  -0.6993182  -1.2112547   0.2177199), wk =   0.0043732
        k(   37) = (  -0.6993182   2.2879256  -0.0967644), wk =   0.0043732
        k(   38) = (  -0.6993182   2.0187579  -0.0725733), wk =   0.0043732
        k(   39) = (  -0.6993182   1.7495902  -0.0483822), wk =   0.0043732
        k(   40) = (  -0.6993182   1.4804224  -0.0241911), wk =   0.0043732
        k(   41) = (  -0.6993182   1.2112547  -0.0000000), wk =   0.0021866
        k(   42) = (  -0.9324243  -0.5383354   0.1935288), wk =   0.0021866
        k(   43) = (  -0.9324243  -0.8075032   0.2177199), wk =   0.0043732
        k(   44) = (  -0.9324243  -1.0766709   0.2419110), wk =   0.0043732
        k(   45) = (  -0.9324243   2.4225095  -0.0725733), wk =   0.0043732
        k(   46) = (  -0.9324243   2.1533417  -0.0483822), wk =   0.0043732
        k(   47) = (  -0.9324243   1.8841740  -0.0241911), wk =   0.0043732
        k(   48) = (  -0.9324243   1.6150063   0.0000000), wk =   0.0021866
        k(   49) = (  -1.1655304  -0.6729193   0.2419110), wk =   0.0021866
        k(   50) = (  -1.1655304  -0.9420870   0.2661021), wk =   0.0043732
        k(   51) = (  -1.1655304   2.5570933  -0.0483822), wk =   0.0043732
        k(   52) = (  -1.1655304   2.2879256  -0.0241911), wk =   0.0043732
        k(   53) = (  -1.1655304   2.0187579   0.0000000), wk =   0.0021866
        k(   54) = (  -1.3986365  -0.8075032   0.2902932), wk =   0.0021866
        k(   55) = (  -1.3986365   2.6916772  -0.0241911), wk =   0.0043732
        k(   56) = (  -1.3986365   2.4225095  -0.0000000), wk =   0.0021866
        k(   57) = (   1.6317426   0.9420870  -0.3386754), wk =   0.0010933
        k(   58) = (  -0.0000000   0.0000000   0.0725733), wk =   0.0007289
        k(   59) = (   0.0000000  -0.2691677   0.0967644), wk =   0.0021866
        k(   60) = (   0.0000000  -0.5383354   0.1209555), wk =   0.0021866
        k(   61) = (   0.0000000  -0.8075032   0.1451466), wk =   0.0021866
        k(   62) = (   0.0000000  -1.0766709   0.1693377), wk =   0.0021866
        k(   63) = (   0.0000000  -1.3458386   0.1935288), wk =   0.0021866
        k(   64) = (  -0.0000000   2.1533417  -0.1209555), wk =   0.0021866
        k(   65) = (  -0.0000000   1.8841740  -0.0967644), wk =   0.0021866
        k(   66) = (  -0.0000000   1.6150063  -0.0725733), wk =   0.0021866
        k(   67) = (  -0.0000000   1.3458386  -0.0483822), wk =   0.0021866
        k(   68) = (  -0.0000000   1.0766709  -0.0241911), wk =   0.0021866
        k(   69) = (  -0.0000000   0.8075032  -0.0000000), wk =   0.0021866
        k(   70) = (  -0.0000000   0.5383354   0.0241911), wk =   0.0021866
        k(   71) = (  -0.2331061  -0.1345839   0.1209555), wk =   0.0021866
        k(   72) = (  -0.2331061  -0.4037516   0.1451466), wk =   0.0043732
        k(   73) = (  -0.2331061  -0.6729193   0.1693377), wk =   0.0043732
        k(   74) = (  -0.2331061  -0.9420870   0.1935288), wk =   0.0043732
        k(   75) = (  -0.2331061  -1.2112547   0.2177199), wk =   0.0043732
        k(   76) = (  -0.2331061   2.2879256  -0.0967644), wk =   0.0043732
        k(   77) = (  -0.2331061   2.0187579  -0.0725733), wk =   0.0043732
        k(   78) = (  -0.2331061   1.7495902  -0.0483822), wk =   0.0043732
        k(   79) = (  -0.2331061   1.4804224  -0.0241911), wk =   0.0043732
        k(   80) = (  -0.2331061   1.2112547  -0.0000000), wk =   0.0043732
        k(   81) = (  -0.2331061   0.9420870   0.0241911), wk =   0.0043732
        k(   82) = (  -0.2331061   0.6729193   0.0483822), wk =   0.0043732
        k(   83) = (  -0.4662122  -0.2691677   0.1693377), wk =   0.0021866
        k(   84) = (  -0.4662122  -0.5383354   0.1935288), wk =   0.0043732
        k(   85) = (  -0.4662122  -0.8075032   0.2177199), wk =   0.0043732
        k(   86) = (  -0.4662122  -1.0766709   0.2419110), wk =   0.0043732
        k(   87) = (  -0.4662122   2.4225095  -0.0725733), wk =   0.0043732
        k(   88) = (  -0.4662122   2.1533417  -0.0483822), wk =   0.0043732
        k(   89) = (  -0.4662122   1.8841740  -0.0241911), wk =   0.0043732
        k(   90) = (  -0.4662122   1.6150063   0.0000000), wk =   0.0043732
        k(   91) = (  -0.4662122   1.3458386   0.0241911), wk =   0.0043732
        k(   92) = (  -0.4662122   1.0766709   0.0483822), wk =   0.0043732
        k(   93) = (  -0.4662122   0.8075032   0.0725733), wk =   0.0043732
        k(   94) = (  -0.6993182  -0.4037516   0.2177199), wk =   0.0021866
        k(   95) = (  -0.6993182  -0.6729193   0.2419110), wk =   0.0043732
        k(   96) = (  -0.6993182  -0.9420870   0.2661021), wk =   0.0043732
        k(   97) = (  -0.6993182   2.5570933  -0.0483822), wk =   0.0043732
        k(   98) = (  -0.6993182   2.2879256  -0.0241911), wk =   0.0043732
        k(   99) = (  -0.6993182   2.0187579   0.0000000), wk =   0.0043732
        k(  100) = (  -0.6993182   1.7495902   0.0241911), wk =   0.0043732
        k(  101) = (  -0.6993182   1.4804224   0.0483822), wk =   0.0043732
        k(  102) = (  -0.6993182   1.2112547   0.0725733), wk =   0.0043732
        k(  103) = (  -0.6993182   0.9420870   0.0967644), wk =   0.0043732
        k(  104) = (  -0.9324243  -0.5383354   0.2661021), wk =   0.0021866
        k(  105) = (  -0.9324243  -0.8075032   0.2902932), wk =   0.0043732
        k(  106) = (  -0.9324243   2.6916772  -0.0241911), wk =   0.0043732
        k(  107) = (  -0.9324243   2.4225095  -0.0000000), wk =   0.0043732
        k(  108) = (  -0.9324243   2.1533417   0.0241911), wk =   0.0043732
        k(  109) = (  -0.9324243   1.8841740   0.0483822), wk =   0.0043732
        k(  110) = (  -0.9324243   1.6150063   0.0725733), wk =   0.0043732
        k(  111) = (  -0.9324243   1.3458386   0.0967644), wk =   0.0043732
        k(  112) = (  -0.9324243   1.0766709   0.1209555), wk =   0.0043732
        k(  113) = (  -1.1655304  -0.6729193   0.3144843), wk =   0.0021866
        k(  114) = (  -1.1655304   2.8262610   0.0000000), wk =   0.0043732
        k(  115) = (  -1.1655304   2.5570933   0.0241911), wk =   0.0043732
        k(  116) = (  -1.1655304   2.2879256   0.0483822), wk =   0.0043732
        k(  117) = (  -1.1655304   2.0187579   0.0725733), wk =   0.0043732
        k(  118) = (  -1.1655304   1.7495902   0.0967644), wk =   0.0043732
        k(  119) = (  -1.1655304   1.4804224   0.1209555), wk =   0.0043732
        k(  120) = (  -1.1655304   1.2112547   0.1451466), wk =   0.0043732
        k(  121) = (   1.8648486   1.0766709  -0.3144843), wk =   0.0021866
        k(  122) = (   1.8648486   0.8075032  -0.2902932), wk =   0.0043732
        k(  123) = (   1.8648486   0.5383354  -0.2661021), wk =   0.0043732
        k(  124) = (   1.8648486   0.2691677  -0.2419110), wk =   0.0043732
        k(  125) = (   1.8648486   0.0000000  -0.2177199), wk =   0.0043732
        k(  126) = (   1.8648486  -0.2691677  -0.1935288), wk =   0.0043732
        k(  127) = (   1.8648486  -0.5383354  -0.1693377), wk =   0.0021866
        k(  128) = (   1.6317426   0.9420870  -0.2661021), wk =   0.0021866
        k(  129) = (   1.6317426   0.6729193  -0.2419110), wk =   0.0043732
        k(  130) = (   1.6317426   0.4037516  -0.2177199), wk =   0.0043732
        k(  131) = (   1.6317426   0.1345839  -0.1935288), wk =   0.0043732
        k(  132) = (   1.6317426  -0.1345839  -0.1693377), wk =   0.0043732
        k(  133) = (   1.3986365   0.8075032  -0.2177199), wk =   0.0021866
        k(  134) = (   1.3986365   0.5383354  -0.1935288), wk =   0.0043732
        k(  135) = (   1.3986365   0.2691677  -0.1693377), wk =   0.0043732
        k(  136) = (   1.3986365   0.0000000  -0.1451466), wk =   0.0043732
        k(  137) = (   1.1655304   0.6729193  -0.1693377), wk =   0.0021866
        k(  138) = (   1.1655304   0.4037516  -0.1451466), wk =   0.0043732
        k(  139) = (   1.1655304   0.1345839  -0.1209555), wk =   0.0043732
        k(  140) = (   0.9324243   0.5383354  -0.1209555), wk =   0.0021866
        k(  141) = (   0.9324243   0.2691677  -0.0967644), wk =   0.0043732
        k(  142) = (   0.6993182   0.4037516  -0.0725733), wk =   0.0021866
        k(  143) = (  -0.0000000   0.0000000   0.1451466), wk =   0.0007289
        k(  144) = (   0.0000000  -0.2691677   0.1693377), wk =   0.0021866
        k(  145) = (   0.0000000  -0.5383354   0.1935288), wk =   0.0021866
        k(  146) = (   0.0000000  -0.8075032   0.2177199), wk =   0.0021866
        k(  147) = (   0.0000000  -1.0766709   0.2419110), wk =   0.0021866
        k(  148) = (  -0.0000000   2.4225095  -0.0725733), wk =   0.0021866
        k(  149) = (  -0.0000000   2.1533417  -0.0483822), wk =   0.0021866
        k(  150) = (  -0.0000000   1.8841740  -0.0241911), wk =   0.0021866
        k(  151) = (  -0.0000000   1.6150063   0.0000000), wk =   0.0021866
        k(  152) = (  -0.0000000   1.3458386   0.0241911), wk =   0.0021866
        k(  153) = (  -0.0000000   1.0766709   0.0483822), wk =   0.0021866
        k(  154) = (  -0.2331061  -0.1345839   0.1935288), wk =   0.0021866
        k(  155) = (  -0.2331061  -0.4037516   0.2177199), wk =   0.0043732
        k(  156) = (  -0.2331061  -0.6729193   0.2419110), wk =   0.0043732
        k(  157) = (  -0.2331061  -0.9420870   0.2661021), wk =   0.0043732
        k(  158) = (  -0.2331061   2.5570933  -0.0483822), wk =   0.0043732
        k(  159) = (  -0.2331061   2.2879256  -0.0241911), wk =   0.0043732
        k(  160) = (  -0.2331061   2.0187579   0.0000000), wk =   0.0043732
        k(  161) = (  -0.2331061   1.7495902   0.0241911), wk =   0.0043732
        k(  162) = (  -0.2331061   1.4804224   0.0483822), wk =   0.0043732
        k(  163) = (  -0.2331061   1.2112547   0.0725733), wk =   0.0043732
        k(  164) = (  -0.4662122  -0.2691677   0.2419110), wk =   0.0021866
        k(  165) = (  -0.4662122  -0.5383354   0.2661021), wk =   0.0043732
        k(  166) = (  -0.4662122  -0.8075032   0.2902932), wk =   0.0043732
        k(  167) = (  -0.4662122   2.6916772  -0.0241911), wk =   0.0043732
        k(  168) = (  -0.4662122   2.4225095  -0.0000000), wk =   0.0043732
        k(  169) = (  -0.4662122   2.1533417   0.0241911), wk =   0.0043732
        k(  170) = (  -0.4662122   1.8841740   0.0483822), wk =   0.0043732
        k(  171) = (  -0.4662122   1.6150063   0.0725733), wk =   0.0043732
        k(  172) = (  -0.4662122   1.3458386   0.0967644), wk =   0.0043732
        k(  173) = (  -0.6993182  -0.4037516   0.2902932), wk =   0.0021866
        k(  174) = (  -0.6993182  -0.6729193   0.3144843), wk =   0.0043732
        k(  175) = (  -0.6993182   2.8262610   0.0000000), wk =   0.0043732
        k(  176) = (  -0.6993182   2.5570933   0.0241911), wk =   0.0043732
        k(  177) = (  -0.6993182   2.2879256   0.0483822), wk =   0.0043732
        k(  178) = (  -0.6993182   2.0187579   0.0725733), wk =   0.0043732
        k(  179) = (  -0.6993182   1.7495902   0.0967644), wk =   0.0043732
        k(  180) = (  -0.6993182   1.4804224   0.1209555), wk =   0.0043732
        k(  181) = (  -0.9324243  -0.5383354   0.3386754), wk =   0.0021866
        k(  182) = (  -0.9324243   2.9608449   0.0241911), wk =   0.0043732
        k(  183) = (  -0.9324243   2.6916772   0.0483822), wk =   0.0043732
        k(  184) = (  -0.9324243   2.4225095   0.0725733), wk =   0.0043732
        k(  185) = (  -0.9324243   2.1533417   0.0967644), wk =   0.0043732
        k(  186) = (  -0.9324243   1.8841740   0.1209555), wk =   0.0043732
        k(  187) = (  -0.9324243   1.6150063   0.1451466), wk =   0.0043732
        k(  188) = (   2.0979547   1.2112547  -0.2902932), wk =   0.0021866
        k(  189) = (   2.0979547   0.9420870  -0.2661021), wk =   0.0043732
        k(  190) = (   2.0979547   0.6729193  -0.2419110), wk =   0.0043732
        k(  191) = (   2.0979547   0.4037516  -0.2177199), wk =   0.0043732
        k(  192) = (   2.0979547   0.1345839  -0.1935288), wk =   0.0043732
        k(  193) = (   2.0979547  -0.1345839  -0.1693377), wk =   0.0021866
        k(  194) = (   1.8648486   1.0766709  -0.2419110), wk =   0.0021866
        k(  195) = (   1.8648486   0.8075032  -0.2177199), wk =   0.0043732
        k(  196) = (   1.8648486   0.5383354  -0.1935288), wk =   0.0043732
        k(  197) = (   1.8648486   0.2691677  -0.1693377), wk =   0.0043732
        k(  198) = (   1.6317426   0.9420870  -0.1935288), wk =   0.0021866
        k(  199) = (   1.6317426   0.6729193  -0.1693377), wk =   0.0043732
        k(  200) = (   1.6317426   0.4037516  -0.1451466), wk =   0.0043732
        k(  201) = (   1.3986365   0.8075032  -0.1451466), wk =   0.0021866
        k(  202) = (   1.3986365   0.5383354  -0.1209555), wk =   0.0043732
        k(  203) = (   1.1655304   0.6729193  -0.0967644), wk =   0.0021866
        k(  204) = (   0.0000000   0.0000000   0.2177199), wk =   0.0007289
        k(  205) = (   0.0000000  -0.2691677   0.2419110), wk =   0.0021866
        k(  206) = (   0.0000000  -0.5383354   0.2661021), wk =   0.0021866
        k(  207) = (   0.0000000  -0.8075032   0.2902932), wk =   0.0021866
        k(  208) = (   0.0000000   2.6916772  -0.0241911), wk =   0.0021866
        k(  209) = (   0.0000000   2.4225095  -0.0000000), wk =   0.0021866
        k(  210) = (   0.0000000   2.1533417   0.0241911), wk =   0.0021866
        k(  211) = (   0.0000000   1.8841740   0.0483822), wk =   0.0021866
        k(  212) = (   0.0000000   1.6150063   0.0725733), wk =   0.0021866
        k(  213) = (  -0.2331061  -0.1345839   0.2661021), wk =   0.0021866
        k(  214) = (  -0.2331061  -0.4037516   0.2902932), wk =   0.0043732
        k(  215) = (  -0.2331061  -0.6729193   0.3144843), wk =   0.0043732
        k(  216) = (  -0.2331061   2.8262610   0.0000000), wk =   0.0043732
        k(  217) = (  -0.2331061   2.5570933   0.0241911), wk =   0.0043732
        k(  218) = (  -0.2331061   2.2879256   0.0483822), wk =   0.0043732
        k(  219) = (  -0.2331061   2.0187579   0.0725733), wk =   0.0043732
        k(  220) = (  -0.2331061   1.7495902   0.0967644), wk =   0.0043732
        k(  221) = (  -0.4662122  -0.2691677   0.3144843), wk =   0.0021866
        k(  222) = (  -0.4662122  -0.5383354   0.3386754), wk =   0.0043732
        k(  223) = (  -0.4662122   2.9608449   0.0241911), wk =   0.0043732
        k(  224) = (  -0.4662122   2.6916772   0.0483822), wk =   0.0043732
        k(  225) = (  -0.4662122   2.4225095   0.0725733), wk =   0.0043732
        k(  226) = (  -0.4662122   2.1533417   0.0967644), wk =   0.0043732
        k(  227) = (  -0.4662122   1.8841740   0.1209555), wk =   0.0043732
        k(  228) = (  -0.6993182  -0.4037516   0.3628665), wk =   0.0021866
        k(  229) = (  -0.6993182   3.0954287   0.0483822), wk =   0.0043732
        k(  230) = (  -0.6993182   2.8262610   0.0725733), wk =   0.0043732
        k(  231) = (  -0.6993182   2.5570933   0.0967644), wk =   0.0043732
        k(  232) = (  -0.6993182   2.2879256   0.1209555), wk =   0.0043732
        k(  233) = (  -0.6993182   2.0187579   0.1451466), wk =   0.0043732
        k(  234) = (   2.3310608   1.3458386  -0.2661021), wk =   0.0021866
        k(  235) = (   2.3310608   1.0766709  -0.2419110), wk =   0.0043732
        k(  236) = (   2.3310608   0.8075032  -0.2177199), wk =   0.0043732
        k(  237) = (   2.3310608   0.5383354  -0.1935288), wk =   0.0043732
        k(  238) = (   2.3310608   0.2691677  -0.1693377), wk =   0.0021866
        k(  239) = (   2.0979547   1.2112547  -0.2177199), wk =   0.0021866
        k(  240) = (   2.0979547   0.9420870  -0.1935288), wk =   0.0043732
        k(  241) = (   2.0979547   0.6729193  -0.1693377), wk =   0.0043732
        k(  242) = (   1.8648486   1.0766709  -0.1693377), wk =   0.0021866
        k(  243) = (   1.8648486   0.8075032  -0.1451466), wk =   0.0043732
        k(  244) = (   1.6317426   0.9420870  -0.1209555), wk =   0.0021866
        k(  245) = (  -0.0000000   0.0000000   0.2902932), wk =   0.0007289
        k(  246) = (   0.0000000  -0.2691677   0.3144843), wk =   0.0021866
        k(  247) = (   0.0000000  -0.5383354   0.3386754), wk =   0.0021866
        k(  248) = (  -0.0000000   2.9608449   0.0241911), wk =   0.0021866
        k(  249) = (  -0.0000000   2.6916772   0.0483822), wk =   0.0021866
        k(  250) = (  -0.0000000   2.4225095   0.0725733), wk =   0.0021866
        k(  251) = (  -0.0000000   2.1533417   0.0967644), wk =   0.0021866
        k(  252) = (  -0.2331061  -0.1345839   0.3386754), wk =   0.0021866
        k(  253) = (  -0.2331061  -0.4037516   0.3628665), wk =   0.0043732
        k(  254) = (  -0.2331061   3.0954287   0.0483822), wk =   0.0043732
        k(  255) = (  -0.2331061   2.8262610   0.0725733), wk =   0.0043732
        k(  256) = (  -0.2331061   2.5570933   0.0967644), wk =   0.0043732
        k(  257) = (  -0.2331061   2.2879256   0.1209555), wk =   0.0043732
        k(  258) = (  -0.4662122  -0.2691677   0.3870576), wk =   0.0021866
        k(  259) = (  -0.4662122   3.2300126   0.0725733), wk =   0.0043732
        k(  260) = (  -0.4662122   2.9608449   0.0967644), wk =   0.0043732
        k(  261) = (  -0.4662122   2.6916772   0.1209555), wk =   0.0043732
        k(  262) = (  -0.4662122   2.4225095   0.1451466), wk =   0.0043732
        k(  263) = (   2.5641669   1.4804224  -0.2419110), wk =   0.0021866
        k(  264) = (   2.5641669   1.2112547  -0.2177199), wk =   0.0043732
        k(  265) = (   2.5641669   0.9420870  -0.1935288), wk =   0.0043732
        k(  266) = (   2.5641669   0.6729193  -0.1693377), wk =   0.0021866
        k(  267) = (   2.3310608   1.3458386  -0.1935288), wk =   0.0021866
        k(  268) = (   2.3310608   1.0766709  -0.1693377), wk =   0.0043732
        k(  269) = (   2.0979547   1.2112547  -0.1451466), wk =   0.0021866
        k(  270) = (  -0.0000000  -0.0000000   0.3628665), wk =   0.0007289
        k(  271) = (  -0.0000000  -0.2691677   0.3870576), wk =   0.0021866
        k(  272) = (  -0.0000000   3.2300126   0.0725733), wk =   0.0021866
        k(  273) = (  -0.0000000   2.9608449   0.0967644), wk =   0.0021866
        k(  274) = (  -0.0000000   2.6916772   0.1209555), wk =   0.0021866
        k(  275) = (  -0.2331061  -0.1345839   0.4112487), wk =   0.0021866
        k(  276) = (  -0.2331061   3.3645965   0.0967644), wk =   0.0043732
        k(  277) = (  -0.2331061   3.0954287   0.1209555), wk =   0.0043732
        k(  278) = (  -0.2331061   2.8262610   0.1451466), wk =   0.0043732
        k(  279) = (   2.7972730   1.6150063  -0.2177199), wk =   0.0021866
        k(  280) = (   2.7972730   1.3458386  -0.1935288), wk =   0.0043732
        k(  281) = (   2.7972730   1.0766709  -0.1693377), wk =   0.0021866
        k(  282) = (   2.5641669   1.4804224  -0.1693377), wk =   0.0021866
        k(  283) = (   0.0000000   0.0000000   0.4354398), wk =   0.0007289
        k(  284) = (   0.0000000   3.4991803   0.1209555), wk =   0.0021866
        k(  285) = (   0.0000000   3.2300126   0.1451466), wk =   0.0021866
        k(  286) = (   3.0303790   1.7495902  -0.1935288), wk =   0.0021866
        k(  287) = (   3.0303790   1.4804224  -0.1693377), wk =   0.0021866
        k(  288) = (  -0.0000000   0.0000000  -0.5080131), wk =   0.0003644

                       cryst. coord.
        k(    1) = (   0.0000000   0.0000000   0.0000000), wk =   0.0003644
        k(    2) = (   0.0000000   0.0000000   0.0714286), wk =   0.0021866
        k(    3) = (   0.0000000   0.0000000   0.1428571), wk =   0.0021866
        k(    4) = (   0.0000000   0.0000000   0.2142857), wk =   0.0021866
        k(    5) = (   0.0000000   0.0000000   0.2857143), wk =   0.0021866
        k(    6) = (   0.0000000   0.0000000   0.3571429), wk =   0.0021866
        k(    7) = (   0.0000000   0.0000000   0.4285714), wk =   0.0021866
        k(    8) = (  -0.0000000  -0.0000000  -0.5000000), wk =   0.0010933
        k(    9) = (   0.0000000   0.0714286   0.0714286), wk =   0.0021866
        k(   10) = (   0.0000000   0.0714286   0.1428571), wk =   0.0043732
        k(   11) = (   0.0000000   0.0714286   0.2142857), wk =   0.0043732
        k(   12) = (   0.0000000   0.0714286   0.2857143), wk =   0.0043732
        k(   13) = (   0.0000000   0.0714286   0.3571429), wk =   0.0043732
        k(   14) = (   0.0000000   0.0714286   0.4285714), wk =   0.0043732
        k(   15) = (  -0.0000000   0.0714286  -0.5000000), wk =   0.0043732
        k(   16) = (  -0.0000000   0.0714286  -0.4285714), wk =   0.0043732
        k(   17) = (  -0.0000000   0.0714286  -0.3571429), wk =   0.0043732
        k(   18) = (  -0.0000000   0.0714286  -0.2857143), wk =   0.0043732
        k(   19) = (   0.0000000   0.0714286  -0.2142857), wk =   0.0043732
        k(   20) = (   0.0000000   0.0714286  -0.1428571), wk =   0.0043732
        k(   21) = (   0.0000000   0.0714286  -0.0714286), wk =   0.0021866
        k(   22) = (   0.0000000   0.1428571   0.1428571), wk =   0.0021866
        k(   23) = (   0.0000000   0.1428571   0.2142857), wk =   0.0043732
        k(   24) = (   0.0000000   0.1428571   0.2857143), wk =   0.0043732
        k(   25) = (   0.0000000   0.1428571   0.3571429), wk =   0.0043732
        k(   26) = (   0.0000000   0.1428571   0.4285714), wk =   0.0043732
        k(   27) = (  -0.0000000   0.1428571  -0.5000000), wk =   0.0043732
        k(   28) = (   0.0000000   0.1428571  -0.4285714), wk =   0.0043732
        k(   29) = (  -0.0000000   0.1428571  -0.3571429), wk =   0.0043732
        k(   30) = (   0.0000000   0.1428571  -0.2857143), wk =   0.0043732
        k(   31) = (  -0.0000000   0.1428571  -0.2142857), wk =   0.0043732
        k(   32) = (  -0.0000000   0.1428571  -0.1428571), wk =   0.0021866
        k(   33) = (   0.0000000   0.2142857   0.2142857), wk =   0.0021866
        k(   34) = (   0.0000000   0.2142857   0.2857143), wk =   0.0043732
        k(   35) = (   0.0000000   0.2142857   0.3571429), wk =   0.0043732
        k(   36) = (   0.0000000   0.2142857   0.4285714), wk =   0.0043732
        k(   37) = (  -0.0000000   0.2142857  -0.5000000), wk =   0.0043732
        k(   38) = (  -0.0000000   0.2142857  -0.4285714), wk =   0.0043732
        k(   39) = (   0.0000000   0.2142857  -0.3571429), wk =   0.0043732
        k(   40) = (  -0.0000000   0.2142857  -0.2857143), wk =   0.0043732
        k(   41) = (  -0.0000000   0.2142857  -0.2142857), wk =   0.0021866
        k(   42) = (   0.0000000   0.2857143   0.2857143), wk =   0.0021866
        k(   43) = (   0.0000000   0.2857143   0.3571429), wk =   0.0043732
        k(   44) = (   0.0000000   0.2857143   0.4285714), wk =   0.0043732
        k(   45) = (  -0.0000000   0.2857143  -0.5000000), wk =   0.0043732
        k(   46) = (  -0.0000000   0.2857143  -0.4285714), wk =   0.0043732
        k(   47) = (  -0.0000000   0.2857143  -0.3571429), wk =   0.0043732
        k(   48) = (  -0.0000000   0.2857143  -0.2857143), wk =   0.0021866
        k(   49) = (  -0.0000000   0.3571429   0.3571429), wk =   0.0021866
        k(   50) = (  -0.0000000   0.3571429   0.4285714), wk =   0.0043732
        k(   51) = (  -0.0000000   0.3571429  -0.5000000), wk =   0.0043732
        k(   52) = (  -0.0000000   0.3571429  -0.4285714), wk =   0.0043732
        k(   53) = (  -0.0000000   0.3571429  -0.3571429), wk =   0.0021866
        k(   54) = (   0.0000000   0.4285714   0.4285714), wk =   0.0021866
        k(   55) = (   0.0000000   0.4285714  -0.5000000), wk =   0.0043732
        k(   56) = (  -0.0000000   0.4285714  -0.4285714), wk =   0.0021866
        k(   57) = (  -0.0000000  -0.5000000  -0.5000000), wk =   0.0010933
        k(   58) = (   0.0714286   0.0714286   0.0714286), wk =   0.0007289
        k(   59) = (   0.0714286   0.0714286   0.1428571), wk =   0.0021866
        k(   60) = (   0.0714286   0.0714286   0.2142857), wk =   0.0021866
        k(   61) = (   0.0714286   0.0714286   0.2857143), wk =   0.0021866
        k(   62) = (   0.0714286   0.0714286   0.3571429), wk =   0.0021866
        k(   63) = (   0.0714286   0.0714286   0.4285714), wk =   0.0021866
        k(   64) = (   0.0714286   0.0714286  -0.5000000), wk =   0.0021866
        k(   65) = (   0.0714286   0.0714286  -0.4285714), wk =   0.0021866
        k(   66) = (   0.0714286   0.0714286  -0.3571429), wk =   0.0021866
        k(   67) = (   0.0714286   0.0714286  -0.2857143), wk =   0.0021866
        k(   68) = (   0.0714286   0.0714286  -0.2142857), wk =   0.0021866
        k(   69) = (   0.0714286   0.0714286  -0.1428571), wk =   0.0021866
        k(   70) = (   0.0714286   0.0714286  -0.0714286), wk =   0.0021866
        k(   71) = (   0.0714286   0.1428571   0.1428571), wk =   0.0021866
        k(   72) = (   0.0714286   0.1428571   0.2142857), wk =   0.0043732
        k(   73) = (   0.0714286   0.1428571   0.2857143), wk =   0.0043732
        k(   74) = (   0.0714286   0.1428571   0.3571429), wk =   0.0043732
        k(   75) = (   0.0714286   0.1428571   0.4285714), wk =   0.0043732
        k(   76) = (   0.0714286   0.1428571  -0.5000000), wk =   0.0043732
        k(   77) = (   0.0714286   0.1428571  -0.4285714), wk =   0.0043732
        k(   78) = (   0.0714286   0.1428571  -0.3571429), wk =   0.0043732
        k(   79) = (   0.0714286   0.1428571  -0.2857143), wk =   0.0043732
        k(   80) = (   0.0714286   0.1428571  -0.2142857), wk =   0.0043732
        k(   81) = (   0.0714286   0.1428571  -0.1428571), wk =   0.0043732
        k(   82) = (   0.0714286   0.1428571  -0.0714286), wk =   0.0043732
        k(   83) = (   0.0714286   0.2142857   0.2142857), wk =   0.0021866
        k(   84) = (   0.0714286   0.2142857   0.2857143), wk =   0.0043732
        k(   85) = (   0.0714286   0.2142857   0.3571429), wk =   0.0043732
        k(   86) = (   0.0714286   0.2142857   0.4285714), wk =   0.0043732
        k(   87) = (   0.0714286   0.2142857  -0.5000000), wk =   0.0043732
        k(   88) = (   0.0714286   0.2142857  -0.4285714), wk =   0.0043732
        k(   89) = (   0.0714286   0.2142857  -0.3571429), wk =   0.0043732
        k(   90) = (   0.0714286   0.2142857  -0.2857143), wk =   0.0043732
        k(   91) = (   0.0714286   0.2142857  -0.2142857), wk =   0.0043732
        k(   92) = (   0.0714286   0.2142857  -0.1428571), wk =   0.0043732
        k(   93) = (   0.0714286   0.2142857  -0.0714286), wk =   0.0043732
        k(   94) = (   0.0714286   0.2857143   0.2857143), wk =   0.0021866
        k(   95) = (   0.0714286   0.2857143   0.3571429), wk =   0.0043732
        k(   96) = (   0.0714286   0.2857143   0.4285714), wk =   0.0043732
        k(   97) = (   0.0714286   0.2857143  -0.5000000), wk =   0.0043732
        k(   98) = (   0.0714286   0.2857143  -0.4285714), wk =   0.0043732
        k(   99) = (   0.0714286   0.2857143  -0.3571429), wk =   0.0043732
        k(  100) = (   0.0714286   0.2857143  -0.2857143), wk =   0.0043732
        k(  101) = (   0.0714286   0.2857143  -0.2142857), wk =   0.0043732
        k(  102) = (   0.0714286   0.2857143  -0.1428571), wk =   0.0043732
        k(  103) = (   0.0714286   0.2857143  -0.0714286), wk =   0.0043732
        k(  104) = (   0.0714286   0.3571429   0.3571429), wk =   0.0021866
        k(  105) = (   0.0714286   0.3571429   0.4285714), wk =   0.0043732
        k(  106) = (   0.0714286   0.3571429  -0.5000000), wk =   0.0043732
        k(  107) = (   0.0714286   0.3571429  -0.4285714), wk =   0.0043732
        k(  108) = (   0.0714286   0.3571429  -0.3571429), wk =   0.0043732
        k(  109) = (   0.0714286   0.3571429  -0.2857143), wk =   0.0043732
        k(  110) = (   0.0714286   0.3571429  -0.2142857), wk =   0.0043732
        k(  111) = (   0.0714286   0.3571429  -0.1428571), wk =   0.0043732
        k(  112) = (   0.0714286   0.3571429  -0.0714286), wk =   0.0043732
        k(  113) = (   0.0714286   0.4285714   0.4285714), wk =   0.0021866
        k(  114) = (   0.0714286   0.4285714  -0.5000000), wk =   0.0043732
        k(  115) = (   0.0714286   0.4285714  -0.4285714), wk =   0.0043732
        k(  116) = (   0.0714286   0.4285714  -0.3571429), wk =   0.0043732
        k(  117) = (   0.0714286   0.4285714  -0.2857143), wk =   0.0043732
        k(  118) = (   0.0714286   0.4285714  -0.2142857), wk =   0.0043732
        k(  119) = (   0.0714286   0.4285714  -0.1428571), wk =   0.0043732
        k(  120) = (   0.0714286   0.4285714  -0.0714286), wk =   0.0043732
        k(  121) = (   0.0714286  -0.5000000  -0.5000000), wk =   0.0021866
        k(  122) = (   0.0714286  -0.5000000  -0.4285714), wk =   0.0043732
        k(  123) = (   0.0714286  -0.5000000  -0.3571429), wk =   0.0043732
        k(  124) = (   0.0714286  -0.5000000  -0.2857143), wk =   0.0043732
        k(  125) = (   0.0714286  -0.5000000  -0.2142857), wk =   0.0043732
        k(  126) = (   0.0714286  -0.5000000  -0.1428571), wk =   0.0043732
        k(  127) = (   0.0714286  -0.5000000  -0.0714286), wk =   0.0021866
        k(  128) = (   0.0714286  -0.4285714  -0.4285714), wk =   0.0021866
        k(  129) = (   0.0714286  -0.4285714  -0.3571429), wk =   0.0043732
        k(  130) = (   0.0714286  -0.4285714  -0.2857143), wk =   0.0043732
        k(  131) = (   0.0714286  -0.4285714  -0.2142857), wk =   0.0043732
        k(  132) = (   0.0714286  -0.4285714  -0.1428571), wk =   0.0043732
        k(  133) = (   0.0714286  -0.3571429  -0.3571429), wk =   0.0021866
        k(  134) = (   0.0714286  -0.3571429  -0.2857143), wk =   0.0043732
        k(  135) = (   0.0714286  -0.3571429  -0.2142857), wk =   0.0043732
        k(  136) = (   0.0714286  -0.3571429  -0.1428571), wk =   0.0043732
        k(  137) = (   0.0714286  -0.2857143  -0.2857143), wk =   0.0021866
        k(  138) = (   0.0714286  -0.2857143  -0.2142857), wk =   0.0043732
        k(  139) = (   0.0714286  -0.2857143  -0.1428571), wk =   0.0043732
        k(  140) = (   0.0714286  -0.2142857  -0.2142857), wk =   0.0021866
        k(  141) = (   0.0714286  -0.2142857  -0.1428571), wk =   0.0043732
        k(  142) = (   0.0714286  -0.1428571  -0.1428571), wk =   0.0021866
        k(  143) = (   0.1428571   0.1428571   0.1428571), wk =   0.0007289
        k(  144) = (   0.1428571   0.1428571   0.2142857), wk =   0.0021866
        k(  145) = (   0.1428571   0.1428571   0.2857143), wk =   0.0021866
        k(  146) = (   0.1428571   0.1428571   0.3571429), wk =   0.0021866
        k(  147) = (   0.1428571   0.1428571   0.4285714), wk =   0.0021866
        k(  148) = (   0.1428571   0.1428571  -0.5000000), wk =   0.0021866
        k(  149) = (   0.1428571   0.1428571  -0.4285714), wk =   0.0021866
        k(  150) = (   0.1428571   0.1428571  -0.3571429), wk =   0.0021866
        k(  151) = (   0.1428571   0.1428571  -0.2857143), wk =   0.0021866
        k(  152) = (   0.1428571   0.1428571  -0.2142857), wk =   0.0021866
        k(  153) = (   0.1428571   0.1428571  -0.1428571), wk =   0.0021866
        k(  154) = (   0.1428571   0.2142857   0.2142857), wk =   0.0021866
        k(  155) = (   0.1428571   0.2142857   0.2857143), wk =   0.0043732
        k(  156) = (   0.1428571   0.2142857   0.3571429), wk =   0.0043732
        k(  157) = (   0.1428571   0.2142857   0.4285714), wk =   0.0043732
        k(  158) = (   0.1428571   0.2142857  -0.5000000), wk =   0.0043732
        k(  159) = (   0.1428571   0.2142857  -0.4285714), wk =   0.0043732
        k(  160) = (   0.1428571   0.2142857  -0.3571429), wk =   0.0043732
        k(  161) = (   0.1428571   0.2142857  -0.2857143), wk =   0.0043732
        k(  162) = (   0.1428571   0.2142857  -0.2142857), wk =   0.0043732
        k(  163) = (   0.1428571   0.2142857  -0.1428571), wk =   0.0043732
        k(  164) = (   0.1428571   0.2857143   0.2857143), wk =   0.0021866
        k(  165) = (   0.1428571   0.2857143   0.3571429), wk =   0.0043732
        k(  166) = (   0.1428571   0.2857143   0.4285714), wk =   0.0043732
        k(  167) = (   0.1428571   0.2857143  -0.5000000), wk =   0.0043732
        k(  168) = (   0.1428571   0.2857143  -0.4285714), wk =   0.0043732
        k(  169) = (   0.1428571   0.2857143  -0.3571429), wk =   0.0043732
        k(  170) = (   0.1428571   0.2857143  -0.2857143), wk =   0.0043732
        k(  171) = (   0.1428571   0.2857143  -0.2142857), wk =   0.0043732
        k(  172) = (   0.1428571   0.2857143  -0.1428571), wk =   0.0043732
        k(  173) = (   0.1428571   0.3571429   0.3571429), wk =   0.0021866
        k(  174) = (   0.1428571   0.3571429   0.4285714), wk =   0.0043732
        k(  175) = (   0.1428571   0.3571429  -0.5000000), wk =   0.0043732
        k(  176) = (   0.1428571   0.3571429  -0.4285714), wk =   0.0043732
        k(  177) = (   0.1428571   0.3571429  -0.3571429), wk =   0.0043732
        k(  178) = (   0.1428571   0.3571429  -0.2857143), wk =   0.0043732
        k(  179) = (   0.1428571   0.3571429  -0.2142857), wk =   0.0043732
        k(  180) = (   0.1428571   0.3571429  -0.1428571), wk =   0.0043732
        k(  181) = (   0.1428571   0.4285714   0.4285714), wk =   0.0021866
        k(  182) = (   0.1428571   0.4285714  -0.5000000), wk =   0.0043732
        k(  183) = (   0.1428571   0.4285714  -0.4285714), wk =   0.0043732
        k(  184) = (   0.1428571   0.4285714  -0.3571429), wk =   0.0043732
        k(  185) = (   0.1428571   0.4285714  -0.2857143), wk =   0.0043732
        k(  186) = (   0.1428571   0.4285714  -0.2142857), wk =   0.0043732
        k(  187) = (   0.1428571   0.4285714  -0.1428571), wk =   0.0043732
        k(  188) = (   0.1428571  -0.5000000  -0.5000000), wk =   0.0021866
        k(  189) = (   0.1428571  -0.5000000  -0.4285714), wk =   0.0043732
        k(  190) = (   0.1428571  -0.5000000  -0.3571429), wk =   0.0043732
        k(  191) = (   0.1428571  -0.5000000  -0.2857143), wk =   0.0043732
        k(  192) = (   0.1428571  -0.5000000  -0.2142857), wk =   0.0043732
        k(  193) = (   0.1428571  -0.5000000  -0.1428571), wk =   0.0021866
        k(  194) = (   0.1428571  -0.4285714  -0.4285714), wk =   0.0021866
        k(  195) = (   0.1428571  -0.4285714  -0.3571429), wk =   0.0043732
        k(  196) = (   0.1428571  -0.4285714  -0.2857143), wk =   0.0043732
        k(  197) = (   0.1428571  -0.4285714  -0.2142857), wk =   0.0043732
        k(  198) = (   0.1428571  -0.3571429  -0.3571429), wk =   0.0021866
        k(  199) = (   0.1428571  -0.3571429  -0.2857143), wk =   0.0043732
        k(  200) = (   0.1428571  -0.3571429  -0.2142857), wk =   0.0043732
        k(  201) = (   0.1428571  -0.2857143  -0.2857143), wk =   0.0021866
        k(  202) = (   0.1428571  -0.2857143  -0.2142857), wk =   0.0043732
        k(  203) = (   0.1428571  -0.2142857  -0.2142857), wk =   0.0021866
        k(  204) = (   0.2142857   0.2142857   0.2142857), wk =   0.0007289
        k(  205) = (   0.2142857   0.2142857   0.2857143), wk =   0.0021866
        k(  206) = (   0.2142857   0.2142857   0.3571429), wk =   0.0021866
        k(  207) = (   0.2142857   0.2142857   0.4285714), wk =   0.0021866
        k(  208) = (   0.2142857   0.2142857  -0.5000000), wk =   0.0021866
        k(  209) = (   0.2142857   0.2142857  -0.4285714), wk =   0.0021866
        k(  210) = (   0.2142857   0.2142857  -0.3571429), wk =   0.0021866
        k(  211) = (   0.2142857   0.2142857  -0.2857143), wk =   0.0021866
        k(  212) = (   0.2142857   0.2142857  -0.2142857), wk =   0.0021866
        k(  213) = (   0.2142857   0.2857143   0.2857143), wk =   0.0021866
        k(  214) = (   0.2142857   0.2857143   0.3571429), wk =   0.0043732
        k(  215) = (   0.2142857   0.2857143   0.4285714), wk =   0.0043732
        k(  216) = (   0.2142857   0.2857143  -0.5000000), wk =   0.0043732
        k(  217) = (   0.2142857   0.2857143  -0.4285714), wk =   0.0043732
        k(  218) = (   0.2142857   0.2857143  -0.3571429), wk =   0.0043732
        k(  219) = (   0.2142857   0.2857143  -0.2857143), wk =   0.0043732
        k(  220) = (   0.2142857   0.2857143  -0.2142857), wk =   0.0043732
        k(  221) = (   0.2142857   0.3571429   0.3571429), wk =   0.0021866
        k(  222) = (   0.2142857   0.3571429   0.4285714), wk =   0.0043732
        k(  223) = (   0.2142857   0.3571429  -0.5000000), wk =   0.0043732
        k(  224) = (   0.2142857   0.3571429  -0.4285714), wk =   0.0043732
        k(  225) = (   0.2142857   0.3571429  -0.3571429), wk =   0.0043732
        k(  226) = (   0.2142857   0.3571429  -0.2857143), wk =   0.0043732
        k(  227) = (   0.2142857   0.3571429  -0.2142857), wk =   0.0043732
        k(  228) = (   0.2142857   0.4285714   0.4285714), wk =   0.0021866
        k(  229) = (   0.2142857   0.4285714  -0.5000000), wk =   0.0043732
        k(  230) = (   0.2142857   0.4285714  -0.4285714), wk =   0.0043732
        k(  231) = (   0.2142857   0.4285714  -0.3571429), wk =   0.0043732
        k(  232) = (   0.2142857   0.4285714  -0.2857143), wk =   0.0043732
        k(  233) = (   0.2142857   0.4285714  -0.2142857), wk =   0.0043732
        k(  234) = (   0.2142857  -0.5000000  -0.5000000), wk =   0.0021866
        k(  235) = (   0.2142857  -0.5000000  -0.4285714), wk =   0.0043732
        k(  236) = (   0.2142857  -0.5000000  -0.3571429), wk =   0.0043732
        k(  237) = (   0.2142857  -0.5000000  -0.2857143), wk =   0.0043732
        k(  238) = (   0.2142857  -0.5000000  -0.2142857), wk =   0.0021866
        k(  239) = (   0.2142857  -0.4285714  -0.4285714), wk =   0.0021866
        k(  240) = (   0.2142857  -0.4285714  -0.3571429), wk =   0.0043732
        k(  241) = (   0.2142857  -0.4285714  -0.2857143), wk =   0.0043732
        k(  242) = (   0.2142857  -0.3571429  -0.3571429), wk =   0.0021866
        k(  243) = (   0.2142857  -0.3571429  -0.2857143), wk =   0.0043732
        k(  244) = (   0.2142857  -0.2857143  -0.2857143), wk =   0.0021866
        k(  245) = (   0.2857143   0.2857143   0.2857143), wk =   0.0007289
        k(  246) = (   0.2857143   0.2857143   0.3571429), wk =   0.0021866
        k(  247) = (   0.2857143   0.2857143   0.4285714), wk =   0.0021866
        k(  248) = (   0.2857143   0.2857143  -0.5000000), wk =   0.0021866
        k(  249) = (   0.2857143   0.2857143  -0.4285714), wk =   0.0021866
        k(  250) = (   0.2857143   0.2857143  -0.3571429), wk =   0.0021866
        k(  251) = (   0.2857143   0.2857143  -0.2857143), wk =   0.0021866
        k(  252) = (   0.2857143   0.3571429   0.3571429), wk =   0.0021866
        k(  253) = (   0.2857143   0.3571429   0.4285714), wk =   0.0043732
        k(  254) = (   0.2857143   0.3571429  -0.5000000), wk =   0.0043732
        k(  255) = (   0.2857143   0.3571429  -0.4285714), wk =   0.0043732
        k(  256) = (   0.2857143   0.3571429  -0.3571429), wk =   0.0043732
        k(  257) = (   0.2857143   0.3571429  -0.2857143), wk =   0.0043732
        k(  258) = (   0.2857143   0.4285714   0.4285714), wk =   0.0021866
        k(  259) = (   0.2857143   0.4285714  -0.5000000), wk =   0.0043732
        k(  260) = (   0.2857143   0.4285714  -0.4285714), wk =   0.0043732
        k(  261) = (   0.2857143   0.4285714  -0.3571429), wk =   0.0043732
        k(  262) = (   0.2857143   0.4285714  -0.2857143), wk =   0.0043732
        k(  263) = (   0.2857143  -0.5000000  -0.5000000), wk =   0.0021866
        k(  264) = (   0.2857143  -0.5000000  -0.4285714), wk =   0.0043732
        k(  265) = (   0.2857143  -0.5000000  -0.3571429), wk =   0.0043732
        k(  266) = (   0.2857143  -0.5000000  -0.2857143), wk =   0.0021866
        k(  267) = (   0.2857143  -0.4285714  -0.4285714), wk =   0.0021866
        k(  268) = (   0.2857143  -0.4285714  -0.3571429), wk =   0.0043732
        k(  269) = (   0.2857143  -0.3571429  -0.3571429), wk =   0.0021866
        k(  270) = (   0.3571429   0.3571429   0.3571429), wk =   0.0007289
        k(  271) = (   0.3571429   0.3571429   0.4285714), wk =   0.0021866
        k(  272) = (   0.3571429   0.3571429  -0.5000000), wk =   0.0021866
        k(  273) = (   0.3571429   0.3571429  -0.4285714), wk =   0.0021866
        k(  274) = (   0.3571429   0.3571429  -0.3571429), wk =   0.0021866
        k(  275) = (   0.3571429   0.4285714   0.4285714), wk =   0.0021866
        k(  276) = (   0.3571429   0.4285714  -0.5000000), wk =   0.0043732
        k(  277) = (   0.3571429   0.4285714  -0.4285714), wk =   0.0043732
        k(  278) = (   0.3571429   0.4285714  -0.3571429), wk =   0.0043732
        k(  279) = (   0.3571429  -0.5000000  -0.5000000), wk =   0.0021866
        k(  280) = (   0.3571429  -0.5000000  -0.4285714), wk =   0.0043732
        k(  281) = (   0.3571429  -0.5000000  -0.3571429), wk =   0.0021866
        k(  282) = (   0.3571429  -0.4285714  -0.4285714), wk =   0.0021866
        k(  283) = (   0.4285714   0.4285714   0.4285714), wk =   0.0007289
        k(  284) = (   0.4285714   0.4285714  -0.5000000), wk =   0.0021866
        k(  285) = (   0.4285714   0.4285714  -0.4285714), wk =   0.0021866
        k(  286) = (   0.4285714  -0.5000000  -0.5000000), wk =   0.0021866
        k(  287) = (   0.4285714  -0.5000000  -0.4285714), wk =   0.0021866
        k(  288) = (  -0.5000000  -0.5000000  -0.5000000), wk =   0.0003644

     Dense  grid:   257953 G-vectors     FFT dimensions: ( 192, 192, 192)

     Dynamical RAM for                 wfc:       4.86 MB

     Dynamical RAM for     wfc (w. buffer):    1403.25 MB

     Dynamical RAM for           str. fact:       0.37 MB

     Dynamical RAM for           local pot:       0.00 MB

     Dynamical RAM for          nlocal pot:       3.66 MB

     Dynamical RAM for                qrad:      13.81 MB

     Dynamical RAM for          rho,v,vnew:      21.73 MB

     Dynamical RAM for               rhoin:       7.24 MB

     Dynamical RAM for            rho*nmix:       7.87 MB

     Dynamical RAM for           G-vectors:       0.52 MB

     Dynamical RAM for          h,s,v(r/c):       1.14 MB

     Dynamical RAM for          <psi|beta>:       1.15 MB

     Dynamical RAM for                 psi:       9.71 MB

     Dynamical RAM for                hpsi:       9.71 MB

     Dynamical RAM for      wfcinit/wfcrot:       8.82 MB

     Estimated static dynamical RAM per process >       1.43 GB

     Estimated max dynamical RAM per process >       1.46 GB

     Estimated total dynamical RAM >      46.69 GB
     Generating pointlists ...
     new r_m :   0.0885 (alat units)  2.3262 (a.u.) for type    1
     new r_m :   0.0875 (alat units)  2.2989 (a.u.) for type    2
     new r_m :   0.0875 (alat units)  2.2989 (a.u.) for type    3

     Initial potential from superposition of free atoms

     starting charge     156.9976, renormalised to     157.0000

 ==============================================================================
     atom number    1 relative position :    0.0000   0.0000   0.0000
     charge :    13.714876  (integrated on a sphere of radius 0.089)
     magnetization :          0.000000    0.000000   13.452244
     magnetization/charge:    0.000000    0.000000    0.980851
     polar coord.: r, theta, phi [deg] :    13.452244    0.000000  360.000000

 ==============================================================================

 ==============================================================================
     atom number    2 relative position :   -0.0000   0.1769   0.7133
     charge :    20.788369  (integrated on a sphere of radius 0.087)
     magnetization :          0.000000    0.000000    0.001973
     magnetization/charge:    0.000000    0.000000    0.000095
     polar coord.: r, theta, phi [deg] :     0.001973    0.000000  360.000000

 ==============================================================================

 ==============================================================================
     atom number    3 relative position :   -0.0000   0.1769   0.2709
     charge :    20.788369  (integrated on a sphere of radius 0.087)
     magnetization :          0.000000    0.000000    0.001973
     magnetization/charge:    0.000000    0.000000    0.000095
     polar coord.: r, theta, phi [deg] :     0.001973    0.000000  360.000000

 ==============================================================================

 ==============================================================================
     atom number    4 relative position :    0.1532   0.0885   0.1215
     charge :    21.690244  (integrated on a sphere of radius 0.087)
     magnetization :          0.000000    0.000000    0.098750
     magnetization/charge:    0.000000    0.000000    0.004553
     polar coord.: r, theta, phi [deg] :     0.098750    0.000000  360.000000

 ==============================================================================

 ==============================================================================
     atom number    5 relative position :    0.0000   0.0000   0.8628
     charge :    21.690244  (integrated on a sphere of radius 0.087)
     magnetization :          0.000000    0.000000    0.098750
     magnetization/charge:    0.000000    0.000000    0.004553
     polar coord.: r, theta, phi [deg] :     0.098750    0.000000  360.000000

 ==============================================================================

 ==============================================================================
     atom number    6 relative position :    0.1532   0.0885   0.5964
     charge :    21.675198  (integrated on a sphere of radius 0.087)
     magnetization :          0.000000    0.000000    0.000057
     magnetization/charge:    0.000000    0.000000    0.000003
     polar coord.: r, theta, phi [deg] :     0.000057    0.000000  360.000000

 ==============================================================================

 ==============================================================================
     atom number    7 relative position :   -0.0000   0.0000   0.3879
     charge :    21.675198  (integrated on a sphere of radius 0.087)
     magnetization :          0.000000    0.000000    0.000057
     magnetization/charge:    0.000000    0.000000    0.000003
     polar coord.: r, theta, phi [deg] :     0.000057    0.000000  360.000000

 ==============================================================================
     Starting wfcs are  176 randomized atomic wfcs

     total cpu time spent up to now is     1810.0 secs

     Self-consistent Calculation

     iteration #  1     ecut=   120.00 Ry     beta= 0.40
     Davidson diagonalization with overlap

---- Real-time Memory Report at c_bands before calling an iterative solver
          1690 MiB given to the printing process from OS
             0 MiB allocation reported by mallinfo(arena+hblkhd)
        157734 MiB available memory on the node where the printing process lives
------------------
     ethr =  1.00E-02,  avg # of iterations =  2.0

     total cpu time spent up to now is     7831.7 secs

     total energy              =   -3476.18377314 Ry
     estimated scf accuracy    <       2.63424751 Ry

     total magnetization       =     0.00     0.00     5.01 Bohr mag/cell
     absolute magnetization    =     5.57 Bohr mag/cell

     iteration #  2     ecut=   120.00 Ry     beta= 0.40
     Davidson diagonalization with overlap

---- Real-time Memory Report at c_bands before calling an iterative solver
          1761 MiB given to the printing process from OS
             0 MiB allocation reported by mallinfo(arena+hblkhd)
        156925 MiB available memory on the node where the printing process lives
------------------
     ethr =  1.68E-03,  avg # of iterations =  3.1

     total cpu time spent up to now is    12721.4 secs

     total energy              =   -3476.75546930 Ry
     estimated scf accuracy    <       1.05926935 Ry

     total magnetization       =     0.00    -0.00     5.01 Bohr mag/cell
     absolute magnetization    =     5.46 Bohr mag/cell

     iteration #  3     ecut=   120.00 Ry     beta= 0.40
     Davidson diagonalization with overlap

---- Real-time Memory Report at c_bands before calling an iterative solver
          1762 MiB given to the printing process from OS
             0 MiB allocation reported by mallinfo(arena+hblkhd)
        152422 MiB available memory on the node where the printing process lives
------------------
     ethr =  6.75E-04,  avg # of iterations = 10.6

     total cpu time spent up to now is    18578.1 secs

     total energy              =   -3476.13197152 Ry
     estimated scf accuracy    <      11.02415183 Ry

     total magnetization       =     0.00    -0.00     3.09 Bohr mag/cell
     absolute magnetization    =     3.44 Bohr mag/cell

     iteration #  4     ecut=   120.00 Ry     beta= 0.40
     Davidson diagonalization with overlap

---- Real-time Memory Report at c_bands before calling an iterative solver
          1764 MiB given to the printing process from OS
             0 MiB allocation reported by mallinfo(arena+hblkhd)
        152335 MiB available memory on the node where the printing process lives
------------------
     ethr =  6.75E-04,  avg # of iterations =  8.0

     total cpu time spent up to now is    24275.1 secs

     total energy              =   -3476.94950495 Ry
     estimated scf accuracy    <       0.40459751 Ry

     total magnetization       =    -0.00    -0.00     4.98 Bohr mag/cell
     absolute magnetization    =     5.19 Bohr mag/cell

     iteration #  5     ecut=   120.00 Ry     beta= 0.40
     Davidson diagonalization with overlap

---- Real-time Memory Report at c_bands before calling an iterative solver
          1764 MiB given to the printing process from OS
             0 MiB allocation reported by mallinfo(arena+hblkhd)
        155615 MiB available memory on the node where the printing process lives
------------------
     c_bands:  1 eigenvalues not converged
     c_bands:  1 eigenvalues not converged
     c_bands:  1 eigenvalues not converged
     c_bands:  1 eigenvalues not converged
     ethr =  2.58E-04,  avg # of iterations =  7.2

     total cpu time spent up to now is    29218.5 secs

     total energy              =   -3476.95048364 Ry
     estimated scf accuracy    <       0.10367284 Ry

     total magnetization       =    -0.00     0.00     4.98 Bohr mag/cell
     absolute magnetization    =     5.11 Bohr mag/cell

     iteration #  6     ecut=   120.00 Ry     beta= 0.40
     Davidson diagonalization with overlap

---- Real-time Memory Report at c_bands before calling an iterative solver
          1764 MiB given to the printing process from OS
             0 MiB allocation reported by mallinfo(arena+hblkhd)
        155738 MiB available memory on the node where the printing process lives
------------------
     c_bands:  1 eigenvalues not converged
     c_bands:  1 eigenvalues not converged
     c_bands:  1 eigenvalues not converged
     c_bands:  1 eigenvalues not converged
     c_bands:  1 eigenvalues not converged
     c_bands:  1 eigenvalues not converged
     c_bands:  1 eigenvalues not converged
     c_bands:  1 eigenvalues not converged
     c_bands:  1 eigenvalues not converged
     c_bands:  1 eigenvalues not converged
     c_bands:  1 eigenvalues not converged
     c_bands:  1 eigenvalues not converged
     c_bands:  1 eigenvalues not converged
     c_bands:  1 eigenvalues not converged
     c_bands:  1 eigenvalues not converged
     c_bands:  1 eigenvalues not converged
     c_bands:  1 eigenvalues not converged
     c_bands:  1 eigenvalues not converged
     c_bands:  1 eigenvalues not converged
     c_bands:  1 eigenvalues not converged
     c_bands:  1 eigenvalues not converged
     c_bands:  1 eigenvalues not converged
     c_bands:  1 eigenvalues not converged
     c_bands:  1 eigenvalues not converged
     c_bands:  1 eigenvalues not converged
     c_bands:  1 eigenvalues not converged
     c_bands:  1 eigenvalues not converged
     c_bands:  1 eigenvalues not converged
     c_bands:  1 eigenvalues not converged
     c_bands:  1 eigenvalues not converged
     c_bands:  1 eigenvalues not converged
     c_bands:  1 eigenvalues not converged
     c_bands:  1 eigenvalues not converged
     c_bands:  1 eigenvalues not converged
     c_bands:  1 eigenvalues not converged
     c_bands:  1 eigenvalues not converged
     c_bands:  1 eigenvalues not converged
     c_bands:  1 eigenvalues not converged
     c_bands:  1 eigenvalues not converged
     c_bands:  1 eigenvalues not converged
     c_bands:  1 eigenvalues not converged
     c_bands:  1 eigenvalues not converged
     c_bands:  1 eigenvalues not converged
     c_bands:  1 eigenvalues not converged
     c_bands:  1 eigenvalues not converged
     c_bands:  1 eigenvalues not converged
     c_bands:  1 eigenvalues not converged
     c_bands:  1 eigenvalues not converged
     c_bands:  1 eigenvalues not converged
     c_bands:  1 eigenvalues not converged
     c_bands:  1 eigenvalues not converged
     c_bands:  1 eigenvalues not converged
     c_bands:  1 eigenvalues not converged
     c_bands:  1 eigenvalues not converged
     c_bands:  1 eigenvalues not converged
     c_bands:  1 eigenvalues not converged
     c_bands:  1 eigenvalues not converged
     c_bands:  1 eigenvalues not converged
     c_bands:  1 eigenvalues not converged
     c_bands:  1 eigenvalues not converged
     c_bands:  1 eigenvalues not converged
     c_bands:  1 eigenvalues not converged
     c_bands:  1 eigenvalues not converged
     c_bands:  1 eigenvalues not converged
     c_bands:  1 eigenvalues not converged
     c_bands:  1 eigenvalues not converged
     c_bands:  1 eigenvalues not converged
     c_bands:  1 eigenvalues not converged
     c_bands:  1 eigenvalues not converged
     c_bands:  1 eigenvalues not converged
     c_bands:  1 eigenvalues not converged
     c_bands:  1 eigenvalues not converged
     ethr =  6.60E-05,  avg # of iterations = 13.6

     total cpu time spent up to now is    34663.9 secs

     total energy              =   -3476.96389943 Ry
     estimated scf accuracy    <       0.00864161 Ry

     total magnetization       =     0.00    -0.00     4.98 Bohr mag/cell
     absolute magnetization    =     5.01 Bohr mag/cell

     iteration #  7     ecut=   120.00 Ry     beta= 0.40
     Davidson diagonalization with overlap

---- Real-time Memory Report at c_bands before calling an iterative solver
          1764 MiB given to the printing process from OS
             0 MiB allocation reported by mallinfo(arena+hblkhd)
        156000 MiB available memory on the node where the printing process lives
------------------
     c_bands:  1 eigenvalues not converged
     c_bands:  1 eigenvalues not converged
     c_bands:  1 eigenvalues not converged
     c_bands:  1 eigenvalues not converged
     c_bands:  1 eigenvalues not converged
     c_bands:  1 eigenvalues not converged
     c_bands:  1 eigenvalues not converged
     c_bands:  1 eigenvalues not converged
     c_bands:  1 eigenvalues not converged
     c_bands:  1 eigenvalues not converged
     c_bands:  1 eigenvalues not converged
     c_bands:  1 eigenvalues not converged
     c_bands:  1 eigenvalues not converged
     c_bands:  1 eigenvalues not converged
     c_bands:  1 eigenvalues not converged
     c_bands:  1 eigenvalues not converged
     c_bands:  1 eigenvalues not converged
     c_bands:  1 eigenvalues not converged
     c_bands:  1 eigenvalues not converged
     c_bands:  1 eigenvalues not converged
     c_bands:  1 eigenvalues not converged
     c_bands:  1 eigenvalues not converged
     c_bands:  1 eigenvalues not converged
     c_bands:  1 eigenvalues not converged
     c_bands:  1 eigenvalues not converged
     c_bands:  1 eigenvalues not converged
     c_bands:  1 eigenvalues not converged
     c_bands:  1 eigenvalues not converged
     c_bands:  1 eigenvalues not converged
     c_bands:  1 eigenvalues not converged
     c_bands:  1 eigenvalues not converged
     c_bands:  1 eigenvalues not converged
     c_bands:  1 eigenvalues not converged
     c_bands:  1 eigenvalues not converged
     c_bands:  1 eigenvalues not converged
     c_bands:  1 eigenvalues not converged
     c_bands:  1 eigenvalues not converged
     c_bands:  1 eigenvalues not converged
     c_bands:  1 eigenvalues not converged
     c_bands:  1 eigenvalues not converged
     c_bands:  1 eigenvalues not converged
     c_bands:  1 eigenvalues not converged
     c_bands:  1 eigenvalues not converged
     c_bands:  1 eigenvalues not converged
     c_bands:  1 eigenvalues not converged
     c_bands:  1 eigenvalues not converged
     c_bands:  1 eigenvalues not converged
     c_bands:  1 eigenvalues not converged
     c_bands:  1 eigenvalues not converged
     c_bands:  1 eigenvalues not converged
     c_bands:  1 eigenvalues not converged
     c_bands:  1 eigenvalues not converged
     c_bands:  1 eigenvalues not converged
     c_bands:  1 eigenvalues not converged
     c_bands:  1 eigenvalues not converged
     c_bands:  1 eigenvalues not converged
     c_bands:  1 eigenvalues not converged
     c_bands:  1 eigenvalues not converged
     c_bands:  1 eigenvalues not converged
     c_bands:  1 eigenvalues not converged
     c_bands:  1 eigenvalues not converged
     ethr =  5.50E-06,  avg # of iterations = 13.5

     total cpu time spent up to now is    39796.8 secs

     total energy              =   -3476.96398320 Ry
     estimated scf accuracy    <       0.00361501 Ry

     total magnetization       =    -0.00    -0.00     4.98 Bohr mag/cell
     absolute magnetization    =     5.00 Bohr mag/cell

     iteration #  8     ecut=   120.00 Ry     beta= 0.40
     Davidson diagonalization with overlap

---- Real-time Memory Report at c_bands before calling an iterative solver
          1764 MiB given to the printing process from OS
             0 MiB allocation reported by mallinfo(arena+hblkhd)
        155702 MiB available memory on the node where the printing process lives
------------------
     c_bands:  1 eigenvalues not converged
     c_bands:  1 eigenvalues not converged
     c_bands:  1 eigenvalues not converged
     c_bands:  1 eigenvalues not converged
     c_bands:  1 eigenvalues not converged
     c_bands:  1 eigenvalues not converged
     c_bands:  1 eigenvalues not converged
     c_bands:  1 eigenvalues not converged
     c_bands:  1 eigenvalues not converged
     c_bands:  1 eigenvalues not converged
     c_bands:  1 eigenvalues not converged
     c_bands:  1 eigenvalues not converged
     c_bands:  1 eigenvalues not converged
     c_bands:  1 eigenvalues not converged
     c_bands:  1 eigenvalues not converged
     c_bands:  1 eigenvalues not converged
     c_bands:  1 eigenvalues not converged
     c_bands:  1 eigenvalues not converged
     c_bands:  1 eigenvalues not converged
     c_bands:  1 eigenvalues not converged
     c_bands:  1 eigenvalues not converged
     c_bands:  1 eigenvalues not converged
     c_bands:  1 eigenvalues not converged
     c_bands:  1 eigenvalues not converged
     c_bands:  1 eigenvalues not converged
     c_bands:  1 eigenvalues not converged
     c_bands:  1 eigenvalues not converged
     c_bands:  1 eigenvalues not converged
     c_bands:  1 eigenvalues not converged
     c_bands:  1 eigenvalues not converged
     c_bands:  1 eigenvalues not converged
     c_bands:  1 eigenvalues not converged
     c_bands:  1 eigenvalues not converged
     c_bands:  1 eigenvalues not converged
     c_bands:  1 eigenvalues not converged
     c_bands:  1 eigenvalues not converged
     c_bands:  1 eigenvalues not converged
     c_bands:  1 eigenvalues not converged
     c_bands:  1 eigenvalues not converged
     c_bands:  1 eigenvalues not converged
     c_bands:  1 eigenvalues not converged
     c_bands:  1 eigenvalues not converged
     c_bands:  1 eigenvalues not converged
     c_bands:  1 eigenvalues not converged
     c_bands:  1 eigenvalues not converged
     ethr =  2.30E-06,  avg # of iterations = 13.7

     total cpu time spent up to now is    45484.0 secs

     total energy              =   -3476.96464442 Ry
     estimated scf accuracy    <       0.00271302 Ry

     total magnetization       =     0.00    -0.00     4.99 Bohr mag/cell
     absolute magnetization    =     5.02 Bohr mag/cell

     iteration #  9     ecut=   120.00 Ry     beta= 0.40
     Davidson diagonalization with overlap

---- Real-time Memory Report at c_bands before calling an iterative solver
          1764 MiB given to the printing process from OS
             0 MiB allocation reported by mallinfo(arena+hblkhd)
        156692 MiB available memory on the node where the printing process lives
------------------
     c_bands:  1 eigenvalues not converged
     c_bands:  1 eigenvalues not converged
     c_bands:  1 eigenvalues not converged
     c_bands:  1 eigenvalues not converged
     c_bands:  1 eigenvalues not converged
     c_bands:  1 eigenvalues not converged
     c_bands:  1 eigenvalues not converged
     c_bands:  1 eigenvalues not converged
     c_bands:  1 eigenvalues not converged
     c_bands:  1 eigenvalues not converged
     c_bands:  1 eigenvalues not converged
     c_bands:  1 eigenvalues not converged
     c_bands:  1 eigenvalues not converged
     c_bands:  1 eigenvalues not converged
     c_bands:  1 eigenvalues not converged
     c_bands:  1 eigenvalues not converged
     c_bands:  1 eigenvalues not converged
     c_bands:  1 eigenvalues not converged
     c_bands:  1 eigenvalues not converged
     c_bands:  1 eigenvalues not converged
     c_bands:  1 eigenvalues not converged
     c_bands:  1 eigenvalues not converged
     c_bands:  1 eigenvalues not converged
     c_bands:  1 eigenvalues not converged
     c_bands:  1 eigenvalues not converged
     c_bands:  1 eigenvalues not converged
     c_bands:  1 eigenvalues not converged
     c_bands:  1 eigenvalues not converged
     c_bands:  1 eigenvalues not converged
     c_bands:  1 eigenvalues not converged
     c_bands:  1 eigenvalues not converged
     c_bands:  1 eigenvalues not converged
     c_bands:  1 eigenvalues not converged
     c_bands:  1 eigenvalues not converged
     c_bands:  1 eigenvalues not converged
     ethr =  1.73E-06,  avg # of iterations = 10.5

     total cpu time spent up to now is    50517.2 secs

     total energy              =   -3476.96461961 Ry
     estimated scf accuracy    <       0.00089419 Ry

     total magnetization       =     0.00     0.00     4.99 Bohr mag/cell
     absolute magnetization    =     5.02 Bohr mag/cell

     iteration # 10     ecut=   120.00 Ry     beta= 0.40
     Davidson diagonalization with overlap

---- Real-time Memory Report at c_bands before calling an iterative solver
          1766 MiB given to the printing process from OS
             0 MiB allocation reported by mallinfo(arena+hblkhd)
        156486 MiB available memory on the node where the printing process lives
------------------
     c_bands:  1 eigenvalues not converged
     c_bands:  1 eigenvalues not converged
     c_bands:  1 eigenvalues not converged
     c_bands:  1 eigenvalues not converged
     c_bands:  1 eigenvalues not converged
     c_bands:  1 eigenvalues not converged
     c_bands:  1 eigenvalues not converged
     c_bands:  1 eigenvalues not converged
     c_bands:  1 eigenvalues not converged
     c_bands:  1 eigenvalues not converged
     c_bands:  1 eigenvalues not converged
     c_bands:  1 eigenvalues not converged
     c_bands:  1 eigenvalues not converged
     c_bands:  1 eigenvalues not converged
     c_bands:  1 eigenvalues not converged
     c_bands:  1 eigenvalues not converged
     c_bands:  1 eigenvalues not converged
     c_bands:  1 eigenvalues not converged
     c_bands:  1 eigenvalues not converged
     c_bands:  1 eigenvalues not converged
     c_bands:  1 eigenvalues not converged
     c_bands:  1 eigenvalues not converged
     c_bands:  1 eigenvalues not converged
     c_bands:  1 eigenvalues not converged
     c_bands:  1 eigenvalues not converged
     c_bands:  1 eigenvalues not converged
     c_bands:  1 eigenvalues not converged
     c_bands:  1 eigenvalues not converged
     c_bands:  1 eigenvalues not converged
     c_bands:  1 eigenvalues not converged
     c_bands:  1 eigenvalues not converged
     c_bands:  1 eigenvalues not converged
     c_bands:  1 eigenvalues not converged
     c_bands:  1 eigenvalues not converged
     c_bands:  1 eigenvalues not converged
     c_bands:  1 eigenvalues not converged
     c_bands:  1 eigenvalues not converged
     c_bands:  1 eigenvalues not converged
     c_bands:  1 eigenvalues not converged
     c_bands:  1 eigenvalues not converged
     c_bands:  1 eigenvalues not converged
     c_bands:  1 eigenvalues not converged
     c_bands:  1 eigenvalues not converged
     c_bands:  1 eigenvalues not converged
     c_bands:  1 eigenvalues not converged
     c_bands:  1 eigenvalues not converged
     c_bands:  1 eigenvalues not converged
     c_bands:  1 eigenvalues not converged
     c_bands:  1 eigenvalues not converged
     c_bands:  1 eigenvalues not converged
     c_bands:  1 eigenvalues not converged
     c_bands:  1 eigenvalues not converged
     c_bands:  1 eigenvalues not converged
     c_bands:  1 eigenvalues not converged
     c_bands:  1 eigenvalues not converged
     c_bands:  1 eigenvalues not converged
[...]
     1.0000   1.0000   1.0000   1.0000   1.0000   1.0000   1.0000   1.0000
     1.0000   1.0000   1.0000   1.0000   1.0000   0.0000

          k = 3.0304 1.7496-0.1935 ( 32153 PWs)   bands (ev):

  -148.6789-148.6789-148.6736-148.6736-148.1760-148.1760-148.1721-148.1721
  -133.8210-133.8210-133.8161-133.8161-105.5819-105.5818-105.5799-105.5798
  -105.0783-105.0783-105.0765-105.0765 -95.8511 -95.8511 -95.8450 -95.8450
   -95.8378 -95.8378 -95.8363 -95.8363 -95.3477 -95.3476 -95.3466 -95.3466
   -95.3319 -95.3319 -95.3273 -95.3273 -92.8534 -92.8534 -92.8512 -92.8512
   -84.2417 -84.2417 -84.2391 -84.2391 -84.2367 -84.2367 -84.2361 -84.2361
   -70.7557 -66.2784 -40.1334 -39.7019 -39.2199 -35.5753 -35.1471 -34.8209
   -27.1452 -27.1446 -27.1388 -27.1382 -27.1290 -27.1274 -27.1271 -27.1255
   -26.6382 -26.6375 -26.6366 -26.6359 -26.6183 -26.6180 -26.6141 -26.6138
   -25.6833 -25.6831 -25.6726 -25.6722 -25.6701 -25.6673 -25.6642 -25.6615
   -25.6593 -25.6586 -25.6576 -25.6566 -25.1714 -25.1708 -25.1705 -25.1699
   -25.1652 -25.1642 -25.1615 -25.1605 -25.1469 -25.1468 -25.1400 -25.1398
   -19.5274 -19.5274 -19.5217 -19.5217 -19.5207 -19.5207 -19.5193 -19.5193
   -18.2879 -18.2879 -18.2818 -18.2818 -18.2793 -18.2793 -18.2760 -18.2760
   -18.2758 -18.2758 -18.2749 -18.2749  -2.4008  -2.3435  -2.1885  -2.1267
    -0.8451  -0.7595  -0.5553  -0.5038   2.6127   2.6699   2.8512   2.9440
     6.6733   7.0293   7.2008   7.2803   7.6453   7.6931   7.7696   7.7756
     7.9729   8.1526   8.2263   8.4432   8.4667   8.5822   8.6759   8.7264
     8.7956   9.0402   9.1749   9.2525   9.3029   9.7731   9.8674   9.9207
    10.1346  10.1846  10.3476  10.5636  10.6566  11.0537

     occupation numbers 
     1.0000   1.0000   1.0000   1.0000   1.0000   1.0000   1.0000   1.0000
     1.0000   1.0000   1.0000   1.0000   1.0000   1.0000   1.0000   1.0000
     1.0000   1.0000   1.0000   1.0000   1.0000   1.0000   1.0000   1.0000
     1.0000   1.0000   1.0000   1.0000   1.0000   1.0000   1.0000   1.0000
     1.0000   1.0000   1.0000   1.0000   1.0000   1.0000   1.0000   1.0000
     1.0000   1.0000   1.0000   1.0000   1.0000   1.0000   1.0000   1.0000
     1.0000   1.0000   1.0000   1.0000   1.0000   1.0000   1.0000   1.0000
     1.0000   1.0000   1.0000   1.0000   1.0000   1.0000   1.0000   1.0000
     1.0000   1.0000   1.0000   1.0000   1.0000   1.0000   1.0000   1.0000
     1.0000   1.0000   1.0000   1.0000   1.0000   1.0000   1.0000   1.0000
     1.0000   1.0000   1.0000   1.0000   1.0000   1.0000   1.0000   1.0000
     1.0000   1.0000   1.0000   1.0000   1.0000   1.0000   1.0000   1.0000
     1.0000   1.0000   1.0000   1.0000   1.0000   1.0000   1.0000   1.0000
     1.0000   1.0000   1.0000   1.0000   1.0000   1.0000   1.0000   1.0000
     1.0000   1.0000   1.0000   1.0000   1.0000   1.0000   1.0000   1.0000
     1.0000   1.0000   1.0000   1.0000   1.0000   1.0000   1.0000   1.0000
     1.0000   1.0000   1.0000   1.0000   1.0000   1.0000   1.0000   1.0000
     1.0000   1.0000   1.0000   1.0000   1.0000   1.0000   1.0000   1.0000
     1.0000   1.0000   1.0000   1.0000   1.0000   1.0000   1.0000   1.0000
     1.0000   1.0000   1.0000   1.0000   1.0000   0.0000

          k = 3.0304 1.4804-0.1693 ( 32216 PWs)   bands (ev):

  -148.6789-148.6789-148.6736-148.6736-148.1760-148.1760-148.1721-148.1721
  -133.8210-133.8210-133.8161-133.8161-105.5819-105.5818-105.5799-105.5798
  -105.0783-105.0783-105.0765-105.0765 -95.8511 -95.8511 -95.8450 -95.8450
   -95.8378 -95.8378 -95.8363 -95.8363 -95.3477 -95.3476 -95.3466 -95.3466
   -95.3319 -95.3319 -95.3273 -95.3273 -92.8534 -92.8534 -92.8512 -92.8512
   -84.2417 -84.2417 -84.2391 -84.2391 -84.2367 -84.2367 -84.2361 -84.2361
   -70.7557 -66.2784 -40.1334 -39.7019 -39.2200 -35.5754 -35.1471 -34.8210
   -27.1451 -27.1446 -27.1387 -27.1382 -27.1290 -27.1274 -27.1271 -27.1255
   -26.6381 -26.6375 -26.6365 -26.6359 -26.6182 -26.6180 -26.6140 -26.6138
   -25.6832 -25.6830 -25.6725 -25.6721 -25.6700 -25.6674 -25.6642 -25.6616
   -25.6592 -25.6586 -25.6575 -25.6566 -25.1713 -25.1707 -25.1704 -25.1699
   -25.1651 -25.1643 -25.1614 -25.1606 -25.1468 -25.1467 -25.1399 -25.1398
   -19.5274 -19.5273 -19.5218 -19.5217 -19.5206 -19.5206 -19.5193 -19.5193
   -18.2877 -18.2877 -18.2820 -18.2820 -18.2792 -18.2792 -18.2759 -18.2759
   -18.2757 -18.2756 -18.2750 -18.2750  -2.3102  -2.2530  -2.0987  -2.0372
    -0.7823  -0.6989  -0.5063  -0.4546   2.5688   2.6267   2.7839   2.8710
     6.5442   6.8854   7.0706   7.2579   7.3235   7.3471   7.6879   7.7428
     7.8135   7.9584   8.0318   8.0863   8.1449   8.3160   8.5343   8.5623
     8.6597   8.9299   9.1201   9.2083   9.2499   9.4308   9.6647   9.7636
     9.8928  10.1196  10.2873  10.6540  10.7091  11.3517

     occupation numbers 
     1.0000   1.0000   1.0000   1.0000   1.0000   1.0000   1.0000   1.0000
     1.0000   1.0000   1.0000   1.0000   1.0000   1.0000   1.0000   1.0000
     1.0000   1.0000   1.0000   1.0000   1.0000   1.0000   1.0000   1.0000
     1.0000   1.0000   1.0000   1.0000   1.0000   1.0000   1.0000   1.0000
     1.0000   1.0000   1.0000   1.0000   1.0000   1.0000   1.0000   1.0000
     1.0000   1.0000   1.0000   1.0000   1.0000   1.0000   1.0000   1.0000
     1.0000   1.0000   1.0000   1.0000   1.0000   1.0000   1.0000   1.0000
     1.0000   1.0000   1.0000   1.0000   1.0000   1.0000   1.0000   1.0000
     1.0000   1.0000   1.0000   1.0000   1.0000   1.0000   1.0000   1.0000
     1.0000   1.0000   1.0000   1.0000   1.0000   1.0000   1.0000   1.0000
     1.0000   1.0000   1.0000   1.0000   1.0000   1.0000   1.0000   1.0000
     1.0000   1.0000   1.0000   1.0000   1.0000   1.0000   1.0000   1.0000
     1.0000   1.0000   1.0000   1.0000   1.0000   1.0000   1.0000   1.0000
     1.0000   1.0000   1.0000   1.0000   1.0000   1.0000   1.0000   1.0000
     1.0000   1.0000   1.0000   1.0000   1.0000   1.0000   1.0000   1.0000
     1.0000   1.0000   1.0000   1.0000   1.0000   1.0000   1.0000   1.0000
     1.0000   1.0000   1.0000   1.0000   1.0000   1.0000   1.0000   1.0000
     1.0000   1.0000   1.0000   1.0000   1.0000   1.0000   1.0000   1.0000
     1.0000   1.0000   1.0000   1.0000   1.0000   1.0000   1.0000   1.0000
     1.0000   1.0000   1.0000   1.0000   1.0000   0.0000

          k =-0.0000 0.0000-0.5080 ( 32154 PWs)   bands (ev):

  -148.6789-148.6789-148.6736-148.6736-148.1760-148.1760-148.1721-148.1721
  -133.8210-133.8210-133.8161-133.8161-105.5819-105.5818-105.5799-105.5798
  -105.0783-105.0783-105.0765-105.0765 -95.8511 -95.8511 -95.8450 -95.8450
   -95.8378 -95.8378 -95.8363 -95.8363 -95.3477 -95.3476 -95.3466 -95.3466
   -95.3319 -95.3319 -95.3273 -95.3273 -92.8534 -92.8534 -92.8512 -92.8512
   -84.2417 -84.2417 -84.2391 -84.2391 -84.2367 -84.2367 -84.2361 -84.2361
   -70.7557 -66.2784 -40.1334 -39.7019 -39.2199 -35.5753 -35.1471 -34.8209
   -27.1452 -27.1447 -27.1389 -27.1383 -27.1290 -27.1274 -27.1272 -27.1255
   -26.6382 -26.6375 -26.6366 -26.6359 -26.6183 -26.6180 -26.6141 -26.6138
   -25.6834 -25.6832 -25.6727 -25.6723 -25.6701 -25.6673 -25.6643 -25.6615
   -25.6594 -25.6587 -25.6576 -25.6567 -25.1714 -25.1708 -25.1705 -25.1699
   -25.1652 -25.1642 -25.1615 -25.1605 -25.1470 -25.1469 -25.1400 -25.1399
   -19.5275 -19.5275 -19.5217 -19.5217 -19.5208 -19.5208 -19.5193 -19.5193
   -18.2880 -18.2880 -18.2817 -18.2817 -18.2793 -18.2793 -18.2761 -18.2761
   -18.2758 -18.2758 -18.2748 -18.2748  -2.4461  -2.3888  -2.2342  -2.1723
    -0.8754  -0.7887  -0.5828  -0.5316   2.6371   2.6926   2.8752   2.9724
     6.7448   7.0883   7.2571   7.3703   7.7453   7.7722   7.7801   7.7928
     8.0942   8.4292   8.4550   8.5359   8.5587   8.8803   8.8986   8.9355
     8.9571   9.0390   9.2100   9.2211   9.3821   9.8650   9.8692  10.0569
    10.0729  10.1372  10.5010  10.5919  10.6032  10.9524

     occupation numbers 
     1.0000   1.0000   1.0000   1.0000   1.0000   1.0000   1.0000   1.0000
     1.0000   1.0000   1.0000   1.0000   1.0000   1.0000   1.0000   1.0000
     1.0000   1.0000   1.0000   1.0000   1.0000   1.0000   1.0000   1.0000
     1.0000   1.0000   1.0000   1.0000   1.0000   1.0000   1.0000   1.0000
     1.0000   1.0000   1.0000   1.0000   1.0000   1.0000   1.0000   1.0000
     1.0000   1.0000   1.0000   1.0000   1.0000   1.0000   1.0000   1.0000
     1.0000   1.0000   1.0000   1.0000   1.0000   1.0000   1.0000   1.0000
     1.0000   1.0000   1.0000   1.0000   1.0000   1.0000   1.0000   1.0000
     1.0000   1.0000   1.0000   1.0000   1.0000   1.0000   1.0000   1.0000
     1.0000   1.0000   1.0000   1.0000   1.0000   1.0000   1.0000   1.0000
     1.0000   1.0000   1.0000   1.0000   1.0000   1.0000   1.0000   1.0000
     1.0000   1.0000   1.0000   1.0000   1.0000   1.0000   1.0000   1.0000
     1.0000   1.0000   1.0000   1.0000   1.0000   1.0000   1.0000   1.0000
     1.0000   1.0000   1.0000   1.0000   1.0000   1.0000   1.0000   1.0000
     1.0000   1.0000   1.0000   1.0000   1.0000   1.0000   1.0000   1.0000
     1.0000   1.0000   1.0000   1.0000   1.0000   1.0000   1.0000   1.0000
     1.0000   1.0000   1.0000   1.0000   1.0000   1.0000   1.0000   1.0000
     1.0000   1.0000   1.0000   1.0000   1.0000   1.0000   1.0000   1.0000
     1.0000   1.0000   1.0000   1.0000   1.0000   1.0000   1.0000   1.0000
     1.0000   1.0000   1.0000   1.0000   1.0000   0.0000

     highest occupied, lowest unoccupied level (ev):    10.8090   10.8223

!    total energy              =   -3476.96473590 Ry
     estimated scf accuracy    <          6.3E-14 Ry

     The total energy is the sum of the following terms:
     one-electron contribution =   -2530.98279555 Ry
     hartree contribution      =    1207.22576301 Ry
     xc contribution           =    -467.79205091 Ry
     ewald contribution        =   -1685.41565245 Ry

     total magnetization       =     0.00    -0.00     4.99 Bohr mag/cell
     absolute magnetization    =     5.01 Bohr mag/cell

     convergence has been achieved in  25 iterations

     Forces acting on atoms (cartesian axes, Ry/au):

     atom    1 type  1   force =    -0.00000000   -0.00000000   -0.00000000
     atom    2 type  2   force =    -0.00000000   -0.00000000    0.02053497
     atom    3 type  2   force =     0.00000000    0.00000000   -0.02053497
     atom    4 type  3   force =     0.00000000    0.00000000   -0.02023999
     atom    5 type  3   force =     0.00000000   -0.00000000    0.02023999
     atom    6 type  3   force =     0.00000000    0.00000000   -0.01369497
     atom    7 type  3   force =    -0.00000000    0.00000000    0.01369497
     The non-local contrib.  to forces
     atom    1 type  1   force =    -0.00000000    0.00000000   -0.00000000
     atom    2 type  2   force =    -0.00000000    0.00000000   -0.31684784
     atom    3 type  2   force =     0.00000000   -0.00000000    0.31684784
     atom    4 type  3   force =    -0.00000000    0.00000000    0.05849736
     atom    5 type  3   force =    -0.00000000   -0.00000000   -0.05849736
     atom    6 type  3   force =    -0.00000000    0.00000000    0.42927968
     atom    7 type  3   force =     0.00000000    0.00000000   -0.42927968
     The ionic contribution  to forces
     atom    1 type  1   force =     0.00000000    0.00000000   -0.00000000
     atom    2 type  2   force =     0.00000000    0.00000000   -6.97551731
     atom    3 type  2   force =     0.00000000    0.00000000    6.97551731
     atom    4 type  3   force =     0.00000000    0.00000000   -0.80999077
     atom    5 type  3   force =     0.00000000    0.00000000    0.80999077
     atom    6 type  3   force =     0.00000000    0.00000000  -33.00629473
     atom    7 type  3   force =     0.00000000    0.00000000   33.00629473
     The local contribution  to forces
     atom    1 type  1   force =    -0.00000000   -0.00000000    0.00000000
     atom    2 type  2   force =    -0.00000000    0.00000000    7.30824419
     atom    3 type  2   force =    -0.00000000    0.00000000   -7.30824419
     atom    4 type  3   force =     0.00000000    0.00000000    0.73399087
     atom    5 type  3   force =    -0.00000000   -0.00000000   -0.73399087
     atom    6 type  3   force =    -0.00000000    0.00000000   32.56572992
     atom    7 type  3   force =     0.00000000   -0.00000000  -32.56572992
     The core correction contribution to forces
     atom    1 type  1   force =    -0.00000000   -0.00000000    0.00000000
     atom    2 type  2   force =    -0.00000000   -0.00000000    0.00465543
     atom    3 type  2   force =    -0.00000000   -0.00000000   -0.00465543
     atom    4 type  3   force =    -0.00000000    0.00000000   -0.00273712
     atom    5 type  3   force =    -0.00000000   -0.00000000    0.00273712
     atom    6 type  3   force =    -0.00000000    0.00000000   -0.00240997
     atom    7 type  3   force =    -0.00000000   -0.00000000    0.00240997
     The Hubbard contrib.    to forces
     atom    1 type  1   force =     0.00000000    0.00000000    0.00000000
     atom    2 type  2   force =     0.00000000    0.00000000    0.00000000
     atom    3 type  2   force =     0.00000000    0.00000000    0.00000000
     atom    4 type  3   force =     0.00000000    0.00000000    0.00000000
     atom    5 type  3   force =     0.00000000    0.00000000    0.00000000
     atom    6 type  3   force =     0.00000000    0.00000000    0.00000000
     atom    7 type  3   force =     0.00000000    0.00000000    0.00000000
     The SCF correction term to forces
     atom    1 type  1   force =    -0.00000000   -0.00000000   -0.00000000
     atom    2 type  2   force =     0.00000000   -0.00000000    0.00000050
     atom    3 type  2   force =    -0.00000000    0.00000000   -0.00000050
     atom    4 type  3   force =     0.00000000   -0.00000000   -0.00000034
     atom    5 type  3   force =     0.00000000   -0.00000000    0.00000034
     atom    6 type  3   force =     0.00000000    0.00000000    0.00000013
     atom    7 type  3   force =    -0.00000000   -0.00000000   -0.00000013

     Total force =     0.045142     Total SCF correction =     0.000001


     Computing stress (Cartesian axis) and pressure

          total   stress  (Ry/bohr**3)                   (kbar)     P=      -15.60
  -0.00009481  -0.00000000  -0.00000000          -13.95       -0.00       -0.00
   0.00000000  -0.00009481   0.00000000            0.00      -13.95        0.00
   0.00000000   0.00000000  -0.00012842            0.00        0.00      -18.89

     kinetic stress (kbar)  81031.15     -0.00     -0.00
                               -0.00  81031.15      0.00
                               -0.00      0.00  81038.55

     local   stress (kbar) -46354.63     -0.00      0.00
                               -0.00 -46354.63     -0.00
                                0.00     -0.00 -37489.10

     nonloc. stress (kbar)  -9430.12      0.00     -0.00
                                0.00  -9430.12     -0.00
                               -0.00     -0.00  -9438.19

     hartree stress (kbar)  42155.63     -0.00      0.00
                               -0.00  42155.63     -0.00
                                0.00     -0.00  37949.16

     exc-cor stress (kbar)   9215.21     -0.00     -0.00
                               -0.00   9215.21     -0.00
                               -0.00     -0.00   9215.39

     corecor stress (kbar) -21289.53     -0.00     -0.00
                               -0.00 -21289.53      0.00
                               -0.00      0.00 -21289.45

     ewald   stress (kbar) -55341.65      0.00      0.00
                                0.00 -55341.65      0.00
                                0.00      0.00 -60005.25

     hubbard stress (kbar)      0.00      0.00      0.00
                                0.00      0.00      0.00
                                0.00      0.00      0.00

     DFT-D   stress (kbar)      0.00      0.00      0.00
                                0.00      0.00      0.00
                                0.00      0.00      0.00

     XDM     stress (kbar)      0.00      0.00      0.00
                                0.00      0.00      0.00
                                0.00      0.00      0.00

     dft-nl  stress (kbar)      0.00      0.00      0.00
                                0.00      0.00      0.00
                                0.00      0.00      0.00

     TS-vdW  stress (kbar)      0.00      0.00      0.00
                                0.00      0.00      0.00
                                0.00      0.00      0.00

     MDB     stress (kbar)      0.00      0.00      0.00
                                0.00      0.00      0.00
                                0.00      0.00      0.00

     3D-RISM stress (kbar)      0.00      0.00      0.00
                                0.00      0.00      0.00
                                0.00      0.00      0.00


     Writing all to output data dir /gpfs/work4/0/prjs0822/RELAXATION-MST/out/MST.save/

     init_run     :   1783.41s CPU   1809.56s WALL (       1 calls)
     electrons    : 132277.34s CPU 134176.27s WALL (       1 calls)
     forces       :     61.98s CPU     64.84s WALL (       1 calls)
     stress       :    199.66s CPU    202.60s WALL (       1 calls)

     Called by init_run:
     wfcinit      :   1781.07s CPU   1806.99s WALL (       1 calls)
     wfcinit:atom :      2.76s CPU      2.81s WALL (     288 calls)
     wfcinit:wfcr :   1769.74s CPU   1795.50s WALL (     288 calls)
     potinit      :      1.11s CPU      1.21s WALL (       1 calls)
     hinit0       :      1.09s CPU      1.13s WALL (       1 calls)

     Called by electrons:
     c_bands      :  98069.21s CPU  99494.51s WALL (      25 calls)
     sum_band     :  34184.07s CPU  34653.37s WALL (      25 calls)
     v_of_rho     :     21.53s CPU     25.49s WALL (      26 calls)
     v_h          :      0.26s CPU      0.33s WALL (      26 calls)
     v_xc         :     22.69s CPU     26.86s WALL (      28 calls)
     mix_rho      :      1.78s CPU      1.95s WALL (      25 calls)

     Called by c_bands:
     init_us_2    :     43.43s CPU     44.78s WALL (   15264 calls)
     init_us_2:cp :     43.31s CPU     44.73s WALL (   15264 calls)
     cegterg      :  97816.47s CPU  99227.04s WALL (    7200 calls)

     Called by sum_band:
     sum_band:wei :      0.01s CPU      0.02s WALL (      25 calls)
     sum_band:loo :  34182.21s CPU  34651.20s WALL (      25 calls)
     sum_band:buf :     39.21s CPU     47.25s WALL (    7200 calls)
     sum_band:ini :     20.96s CPU     21.76s WALL (    7200 calls)

     Called by *egterg:
     cdiaghg      :   1481.25s CPU   1510.16s WALL (   74207 calls)
     cegterg:over :    845.36s CPU    868.54s WALL (   67007 calls)
     cegterg:upda :    770.91s CPU    784.66s WALL (   67007 calls)
     cegterg:last :    649.62s CPU    664.28s WALL (   13943 calls)
     cdiaghg:chol :     81.31s CPU     82.37s WALL (   74207 calls)
     cdiaghg:inve :     19.86s CPU     20.08s WALL (   74207 calls)
     cdiaghg:para :    249.79s CPU    265.85s WALL (  148414 calls)
     h_psi        :  95539.45s CPU  96890.95s WALL (   74495 calls)
     g_psi        :     30.05s CPU     30.62s WALL (   67007 calls)

     Called by h_psi:
     h_psi:calbec :    587.51s CPU    617.27s WALL (   74495 calls)
     vloc_psi     :  94428.21s CPU  95740.54s WALL (   74495 calls)
     add_vuspsi   :    417.72s CPU    423.23s WALL (   74495 calls)

     General routines
     calbec       :    626.06s CPU    658.55s WALL (   75935 calls)
     fft          :      9.50s CPU     10.95s WALL (     694 calls)
     ffts         :      0.49s CPU      0.60s WALL (     100 calls)
     fftw         :  65726.27s CPU  66588.10s WALL (13283552 calls)

     Parallel routines

     PWSCF        :   1d13h19m CPU   1d13h51m WALL


   This run was terminated on:   4:42:20  15Feb2024            

=------------------------------------------------------------------------------=
   JOB DONE.
=------------------------------------------------------------------------------=
