
     Program PWSCF v.7.1 starts on  5Nov2023 at 14:40:12 

     This program is part of the open-source Quantum ESPRESSO suite
     for quantum simulation of materials; please cite
         "P. Giannozzi et al., J. Phys.:Condens. Matter 21 395502 (2009);
         "P. Giannozzi et al., J. Phys.:Condens. Matter 29 465901 (2017);
         "P. Giannozzi et al., J. Chem. Phys. 152 154105 (2020);
          URL http://www.quantum-espresso.org", 
     in publications or presentations arising from this work. More details at
     http://www.quantum-espresso.org/quote

     Parallel version (MPI & OpenMP), running on     256 processor cores
     Number of MPI processes:               256
     Threads/MPI process:                     1

     MPI processes distributed on     2 nodes
     217088 MiB available memory on the printing compute node when the environment starts

     Reading input from MST-FM_scf.in

     Current dimensions of program PWSCF are:
     Max number of different atomic species (ntypx) = 10
     Max number of k-points (npk) =  40000
     Max angular momentum in pseudopotentials (lmaxx) =  4

     Fixed quantization axis for GGA:     0.000000    0.000000    1.000000
     Message from routine setup:
     the system is metallic, specify occupations
     Message from routine setup:
     using ibrav=0 with symmetry is DISCOURAGED, use correct ibrav instead

     K-points division:     npool     =       4
     R & G space division:  proc/nbgrp/npool/nimage =      64
     Subspace diagonalization in iterative solution of the eigenvalue problem:
     one sub-group per band group will be used
     scalapack distributed-memory algorithm (size of sub-group:  2*  2 procs)


     Parallelization info
     --------------------
     sticks:   dense  smooth     PW     G-vecs:    dense   smooth      PW
     Min         124     124     36                 4029     4029     628
     Max         125     125     37                 4031     4031     630
     Sum        7989    7989   2319               257953   257953   40219

     Using Slab Decomposition



     bravais-lattice index     =            0
     lattice parameter (alat)  =      26.2798  a.u.
     unit-cell volume          =    1452.5474 (a.u.)^3
     number of atoms/cell      =            7
     number of atomic types    =            3
     number of electrons       =       157.00
     number of Kohn-Sham states=          158
     kinetic-energy cutoff     =     120.0000  Ry
     charge density cutoff     =     480.0000  Ry
     scf convergence threshold =      1.0E-13
     mixing beta               =       0.4000
     number of iterations used =            8  plain     mixing
     Exchange-correlation= PBESOL
                           (   1   4  10   8   0   0   0)
     Noncollinear calculation with spin-orbit


     celldm(1)=  26.279834  celldm(2)=   0.000000  celldm(3)=   0.000000
     celldm(4)=   0.000000  celldm(5)=   0.000000  celldm(6)=   0.000000

     crystal axes: (cart. coord. in units of alat)
               a(1) = (   0.153210   0.088456   0.984227 )  
               a(2) = (  -0.153210   0.088456   0.984227 )  
               a(3) = (   0.000000  -0.176912   0.984227 )  

     reciprocal axes: (cart. coord. in units 2 pi/alat)
               b(1) = (  3.263485  1.884174  0.338675 )  
               b(2) = ( -3.263485  1.884174  0.338675 )  
               b(3) = (  0.000000 -3.768348  0.338675 )  


     PseudoPot. # 1 for Mn read from file:
     /projects/0/prjs0388/Farhan/MST-qe/pseudo/Mn.upf
     MD5 check sum: 9b50e869e35b4674015a8a9b1d40c02b
     Pseudo is Norm-conserving + core correction, Zval = 15.0
     Generated using ONCVPSP code by D. R. Hamann
     Using radial grid of 1448 points, 10 beta functions with: 
                l(1) =   0
                l(2) =   0
                l(3) =   1
                l(4) =   1
                l(5) =   1
                l(6) =   1
                l(7) =   2
                l(8) =   2
                l(9) =   2
               l(10) =   2

     PseudoPot. # 2 for Sb read from file:
     /projects/0/prjs0388/Farhan/MST-qe/pseudo/Sb.upf
     MD5 check sum: d7e4a923c9e5eb416dd6a712e5c7b634
     Pseudo is Norm-conserving + core correction, Zval = 23.0
     Generated using ONCVPSP code by D. R. Hamann
     Using radial grid of 1452 points, 10 beta functions with: 
                l(1) =   0
                l(2) =   0
                l(3) =   1
                l(4) =   1
                l(5) =   1
                l(6) =   1
                l(7) =   2
                l(8) =   2
                l(9) =   2
               l(10) =   2

     PseudoPot. # 3 for Te read from file:
     /projects/0/prjs0388/Farhan/MST-qe/pseudo/Te.upf
     MD5 check sum: 79d0c337239bdfc348e5dd475cdca76d
     Pseudo is Norm-conserving + core correction, Zval = 24.0
     Generated using ONCVPSP code by D. R. Hamann
     Using radial grid of 1310 points, 10 beta functions with: 
                l(1) =   0
                l(2) =   0
                l(3) =   1
                l(4) =   1
                l(5) =   1
                l(6) =   1
                l(7) =   2
                l(8) =   2
                l(9) =   2
               l(10) =   2

     atomic species   valence    mass     pseudopotential
        Mn            15.00     1.00000     Mn( 1.00)
        Sb            23.00     1.00000     Sb( 1.00)
        Te            24.00     1.00000     Te( 1.00)

     12 Sym. Ops., with inversion, found


                                    s                        frac. trans.

      isym =  1     identity                                     

 Time Reversal            0
 cryst.   s( 1) = (     1          0          0      )
                  (     0          1          0      )
                  (     0          0          1      )

 cart.    s( 1) = (  1.0000000  0.0000000  0.0000000 )
                  ( -0.0000000  1.0000000 -0.0000000 )
                  (  0.0000000  0.0000000  1.0000000 )


      isym =  2     180 deg rotation - cart. axis [1,0,0]        

 Time Reversal            1
 cryst.   s( 2) = (     0         -1          0      )
                  (    -1          0          0      )
                  (     0          0         -1      )

 cart.    s( 2) = (  1.0000000 -0.0000000 -0.0000000 )
                  ( -0.0000000 -1.0000000  0.0000000 )
                  (  0.0000000 -0.0000000 -1.0000000 )


      isym =  3     120 deg rotation - cryst. axis [0,0,1]       

 Time Reversal            0
 cryst.   s( 3) = (     0          1          0      )
                  (     0          0          1      )
                  (     1          0          0      )

 cart.    s( 3) = ( -0.5000000 -0.8660254  0.0000000 )
                  (  0.8660254 -0.5000000 -0.0000000 )
                  (  0.0000000 -0.0000000  1.0000000 )


      isym =  4     120 deg rotation - cryst. axis [0,0,-1]      

 Time Reversal            0
 cryst.   s( 4) = (     0          0          1      )
                  (     1          0          0      )
                  (     0          1          0      )

 cart.    s( 4) = ( -0.5000000  0.8660254  0.0000000 )
                  ( -0.8660254 -0.5000000 -0.0000000 )
                  ( -0.0000000 -0.0000000  1.0000000 )


      isym =  5     180 deg rotation - cryst. axis [0,1,0]       

 Time Reversal            1
 cryst.   s( 5) = (    -1          0          0      )
                  (     0          0         -1      )
                  (     0         -1          0      )

 cart.    s( 5) = ( -0.5000000 -0.8660254 -0.0000000 )
                  ( -0.8660254  0.5000000  0.0000000 )
                  ( -0.0000000  0.0000000 -1.0000000 )


      isym =  6     180 deg rotation - cryst. axis [1,1,0]       

 Time Reversal            1
 cryst.   s( 6) = (     0          0         -1      )
                  (     0         -1          0      )
                  (    -1          0          0      )

 cart.    s( 6) = ( -0.5000000  0.8660254 -0.0000000 )
                  (  0.8660254  0.5000000  0.0000000 )
                  ( -0.0000000  0.0000000 -1.0000000 )


      isym =  7     inversion                                    

 Time Reversal            0
 cryst.   s( 7) = (    -1          0          0      )
                  (     0         -1          0      )
                  (     0          0         -1      )

 cart.    s( 7) = ( -1.0000000 -0.0000000 -0.0000000 )
                  (  0.0000000 -1.0000000  0.0000000 )
                  ( -0.0000000 -0.0000000 -1.0000000 )


      isym =  8     inv. 180 deg rotation - cart. axis [1,0,0]   

 Time Reversal            1
 cryst.   s( 8) = (     0          1          0      )
                  (     1          0          0      )
                  (     0          0          1      )

 cart.    s( 8) = ( -1.0000000  0.0000000  0.0000000 )
                  (  0.0000000  1.0000000 -0.0000000 )
                  ( -0.0000000  0.0000000  1.0000000 )


      isym =  9     inv. 120 deg rotation - cryst. axis [0,0,1]  

 Time Reversal            0
 cryst.   s( 9) = (     0         -1          0      )
                  (     0          0         -1      )
                  (    -1          0          0      )

 cart.    s( 9) = (  0.5000000  0.8660254 -0.0000000 )
                  ( -0.8660254  0.5000000  0.0000000 )
                  ( -0.0000000  0.0000000 -1.0000000 )


      isym = 10     inv. 120 deg rotation - cryst. axis [0,0,-1] 

 Time Reversal            0
 cryst.   s(10) = (     0          0         -1      )
                  (    -1          0          0      )
                  (     0         -1          0      )

 cart.    s(10) = (  0.5000000 -0.8660254 -0.0000000 )
                  (  0.8660254  0.5000000  0.0000000 )
                  (  0.0000000  0.0000000 -1.0000000 )


      isym = 11     inv. 180 deg rotation - cryst. axis [0,1,0]  

 Time Reversal            1
 cryst.   s(11) = (     1          0          0      )
                  (     0          0          1      )
                  (     0          1          0      )

 cart.    s(11) = (  0.5000000  0.8660254  0.0000000 )
                  (  0.8660254 -0.5000000 -0.0000000 )
                  (  0.0000000 -0.0000000  1.0000000 )


      isym = 12     inv. 180 deg rotation - cryst. axis [1,1,0]  

 Time Reversal            1
 cryst.   s(12) = (     0          0          1      )
                  (     0          1          0      )
                  (     1          0          0      )

 cart.    s(12) = (  0.5000000 -0.8660254  0.0000000 )
                  ( -0.8660254 -0.5000000 -0.0000000 )
                  (  0.0000000 -0.0000000  1.0000000 )


   Cartesian axes

     site n.     atom                  positions (alat units)
         1           Mn  tau(   1) = (   0.0000000   0.0000000   0.0000000  )
         2           Sb  tau(   2) = (  -0.0000000   0.1769122   0.7132986  )
         3           Sb  tau(   3) = (  -0.0000000   0.1769122   0.2709281  )
         4           Te  tau(   4) = (   0.1532104   0.0884561   0.1214536  )
         5           Te  tau(   5) = (   0.0000000   0.0000000   0.8627731  )
         6           Te  tau(   6) = (   0.1532104   0.0884561   0.5963626  )
         7           Te  tau(   7) = (  -0.0000000   0.0000000   0.3878640  )

   Crystallographic axes

     site n.     atom                  positions (cryst. coord.)
         1           Mn  tau(   1) = (  0.0000000  0.0000000  0.0000000  )
         2           Sb  tau(   2) = (  0.5749100  0.5749100 -0.4250900  )
         3           Sb  tau(   3) = (  0.4250900  0.4250900 -0.5749100  )
         4           Te  tau(   4) = (  0.7078000 -0.2922000 -0.2922000  )
         5           Te  tau(   5) = (  0.2922000  0.2922000  0.2922000  )
         6           Te  tau(   6) = (  0.8686400 -0.1313600 -0.1313600  )
         7           Te  tau(   7) = (  0.1313600  0.1313600  0.1313600  )

     number of k points=   417
                       cart. coord. in units 2pi/alat
        k(    1) = (   0.0000000   0.0000000   0.0000000), wk =   0.0002441
        k(    2) = (   0.0000000  -0.2355218   0.0211672), wk =   0.0014648
        k(    3) = (   0.0000000  -0.4710435   0.0423344), wk =   0.0014648
        k(    4) = (   0.0000000  -0.7065653   0.0635016), wk =   0.0014648
        k(    5) = (   0.0000000  -0.9420870   0.0846688), wk =   0.0014648
        k(    6) = (   0.0000000  -1.1776088   0.1058361), wk =   0.0014648
        k(    7) = (   0.0000000  -1.4131305   0.1270033), wk =   0.0014648
        k(    8) = (   0.0000000  -1.6486523   0.1481705), wk =   0.0014648
        k(    9) = (  -0.0000000   1.8841740  -0.1693377), wk =   0.0007324
        k(   10) = (  -0.2039678  -0.1177609   0.0423344), wk =   0.0014648
        k(   11) = (  -0.2039678  -0.3532826   0.0635016), wk =   0.0029297
        k(   12) = (  -0.2039678  -0.5888044   0.0846688), wk =   0.0029297
        k(   13) = (  -0.2039678  -0.8243261   0.1058361), wk =   0.0029297
        k(   14) = (  -0.2039678  -1.0598479   0.1270033), wk =   0.0029297
        k(   15) = (  -0.2039678  -1.2953696   0.1481705), wk =   0.0029297
        k(   16) = (  -0.2039678  -1.5308914   0.1693377), wk =   0.0029297
        k(   17) = (  -0.2039678   2.0019349  -0.1481705), wk =   0.0029297
        k(   18) = (  -0.2039678   1.7664131  -0.1270033), wk =   0.0029297
        k(   19) = (  -0.2039678   1.5308914  -0.1058361), wk =   0.0029297
        k(   20) = (  -0.2039678   1.2953696  -0.0846688), wk =   0.0029297
        k(   21) = (  -0.2039678   1.0598479  -0.0635016), wk =   0.0029297
        k(   22) = (  -0.2039678   0.8243261  -0.0423344), wk =   0.0029297
        k(   23) = (  -0.2039678   0.5888044  -0.0211672), wk =   0.0029297
        k(   24) = (  -0.2039678   0.3532826   0.0000000), wk =   0.0014648
        k(   25) = (  -0.4079356  -0.2355218   0.0846688), wk =   0.0014648
        k(   26) = (  -0.4079356  -0.4710435   0.1058361), wk =   0.0029297
        k(   27) = (  -0.4079356  -0.7065653   0.1270033), wk =   0.0029297
        k(   28) = (  -0.4079356  -0.9420870   0.1481705), wk =   0.0029297
        k(   29) = (  -0.4079356  -1.1776088   0.1693377), wk =   0.0029297
        k(   30) = (  -0.4079356  -1.4131305   0.1905049), wk =   0.0029297
        k(   31) = (  -0.4079356   2.1196958  -0.1270033), wk =   0.0029297
        k(   32) = (  -0.4079356   1.8841740  -0.1058361), wk =   0.0029297
        k(   33) = (  -0.4079356   1.6486523  -0.0846688), wk =   0.0029297
        k(   34) = (  -0.4079356   1.4131305  -0.0635016), wk =   0.0029297
        k(   35) = (  -0.4079356   1.1776088  -0.0423344), wk =   0.0029297
        k(   36) = (  -0.4079356   0.9420870  -0.0211672), wk =   0.0029297
        k(   37) = (  -0.4079356   0.7065653   0.0000000), wk =   0.0014648
        k(   38) = (  -0.6119035  -0.3532826   0.1270033), wk =   0.0014648
        k(   39) = (  -0.6119035  -0.5888044   0.1481705), wk =   0.0029297
        k(   40) = (  -0.6119035  -0.8243261   0.1693377), wk =   0.0029297
        k(   41) = (  -0.6119035  -1.0598479   0.1905049), wk =   0.0029297
        k(   42) = (  -0.6119035  -1.2953696   0.2116721), wk =   0.0029297
        k(   43) = (  -0.6119035   2.2374566  -0.1058361), wk =   0.0029297
        k(   44) = (  -0.6119035   2.0019349  -0.0846688), wk =   0.0029297
        k(   45) = (  -0.6119035   1.7664131  -0.0635016), wk =   0.0029297
        k(   46) = (  -0.6119035   1.5308914  -0.0423344), wk =   0.0029297
        k(   47) = (  -0.6119035   1.2953696  -0.0211672), wk =   0.0029297
        k(   48) = (  -0.6119035   1.0598479  -0.0000000), wk =   0.0014648
        k(   49) = (  -0.8158713  -0.4710435   0.1693377), wk =   0.0014648
        k(   50) = (  -0.8158713  -0.7065653   0.1905049), wk =   0.0029297
        k(   51) = (  -0.8158713  -0.9420870   0.2116721), wk =   0.0029297
        k(   52) = (  -0.8158713  -1.1776088   0.2328393), wk =   0.0029297
        k(   53) = (  -0.8158713   2.3552175  -0.0846688), wk =   0.0029297
        k(   54) = (  -0.8158713   2.1196958  -0.0635016), wk =   0.0029297
        k(   55) = (  -0.8158713   1.8841740  -0.0423344), wk =   0.0029297
        k(   56) = (  -0.8158713   1.6486523  -0.0211672), wk =   0.0029297
        k(   57) = (  -0.8158713   1.4131305   0.0000000), wk =   0.0014648
        k(   58) = (  -1.0198391  -0.5888044   0.2116721), wk =   0.0014648
        k(   59) = (  -1.0198391  -0.8243261   0.2328393), wk =   0.0029297
        k(   60) = (  -1.0198391  -1.0598479   0.2540065), wk =   0.0029297
        k(   61) = (  -1.0198391   2.4729784  -0.0635016), wk =   0.0029297
        k(   62) = (  -1.0198391   2.2374566  -0.0423344), wk =   0.0029297
        k(   63) = (  -1.0198391   2.0019349  -0.0211672), wk =   0.0029297
        k(   64) = (  -1.0198391   1.7664131   0.0000000), wk =   0.0014648
        k(   65) = (  -1.2238069  -0.7065653   0.2540065), wk =   0.0014648
        k(   66) = (  -1.2238069  -0.9420870   0.2751737), wk =   0.0029297
        k(   67) = (  -1.2238069   2.5907393  -0.0423344), wk =   0.0029297
        k(   68) = (  -1.2238069   2.3552175  -0.0211672), wk =   0.0029297
        k(   69) = (  -1.2238069   2.1196958  -0.0000000), wk =   0.0014648
        k(   70) = (  -1.4277747  -0.8243261   0.2963410), wk =   0.0014648
        k(   71) = (  -1.4277747   2.7085001  -0.0211672), wk =   0.0029297
        k(   72) = (  -1.4277747   2.4729784  -0.0000000), wk =   0.0014648
        k(   73) = (   1.6317426   0.9420870  -0.3386754), wk =   0.0007324
        k(   74) = (   0.0000000   0.0000000   0.0635016), wk =   0.0004883
        k(   75) = (   0.0000000  -0.2355218   0.0846688), wk =   0.0014648
        k(   76) = (   0.0000000  -0.4710435   0.1058361), wk =   0.0014648
        k(   77) = (   0.0000000  -0.7065653   0.1270033), wk =   0.0014648
        k(   78) = (   0.0000000  -0.9420870   0.1481705), wk =   0.0014648
        k(   79) = (   0.0000000  -1.1776088   0.1693377), wk =   0.0014648
        k(   80) = (   0.0000000  -1.4131305   0.1905049), wk =   0.0014648
        k(   81) = (  -0.0000000   2.1196958  -0.1270033), wk =   0.0014648
        k(   82) = (  -0.0000000   1.8841740  -0.1058361), wk =   0.0014648
        k(   83) = (  -0.0000000   1.6486523  -0.0846688), wk =   0.0014648
        k(   84) = (  -0.0000000   1.4131305  -0.0635016), wk =   0.0014648
        k(   85) = (  -0.0000000   1.1776088  -0.0423344), wk =   0.0014648
        k(   86) = (  -0.0000000   0.9420870  -0.0211672), wk =   0.0014648
        k(   87) = (  -0.0000000   0.7065653   0.0000000), wk =   0.0014648
        k(   88) = (  -0.0000000   0.4710435   0.0211672), wk =   0.0014648
        k(   89) = (  -0.2039678  -0.1177609   0.1058361), wk =   0.0014648
        k(   90) = (  -0.2039678  -0.3532826   0.1270033), wk =   0.0029297
        k(   91) = (  -0.2039678  -0.5888044   0.1481705), wk =   0.0029297
        k(   92) = (  -0.2039678  -0.8243261   0.1693377), wk =   0.0029297
        k(   93) = (  -0.2039678  -1.0598479   0.1905049), wk =   0.0029297
        k(   94) = (  -0.2039678  -1.2953696   0.2116721), wk =   0.0029297
        k(   95) = (  -0.2039678   2.2374566  -0.1058361), wk =   0.0029297
        k(   96) = (  -0.2039678   2.0019349  -0.0846688), wk =   0.0029297
        k(   97) = (  -0.2039678   1.7664131  -0.0635016), wk =   0.0029297
        k(   98) = (  -0.2039678   1.5308914  -0.0423344), wk =   0.0029297
        k(   99) = (  -0.2039678   1.2953696  -0.0211672), wk =   0.0029297
        k(  100) = (  -0.2039678   1.0598479  -0.0000000), wk =   0.0029297
        k(  101) = (  -0.2039678   0.8243261   0.0211672), wk =   0.0029297
        k(  102) = (  -0.2039678   0.5888044   0.0423344), wk =   0.0029297
        k(  103) = (  -0.4079356  -0.2355218   0.1481705), wk =   0.0014648
        k(  104) = (  -0.4079356  -0.4710435   0.1693377), wk =   0.0029297
        k(  105) = (  -0.4079356  -0.7065653   0.1905049), wk =   0.0029297
        k(  106) = (  -0.4079356  -0.9420870   0.2116721), wk =   0.0029297
        k(  107) = (  -0.4079356  -1.1776088   0.2328393), wk =   0.0029297
        k(  108) = (  -0.4079356   2.3552175  -0.0846688), wk =   0.0029297
        k(  109) = (  -0.4079356   2.1196958  -0.0635016), wk =   0.0029297
        k(  110) = (  -0.4079356   1.8841740  -0.0423344), wk =   0.0029297
        k(  111) = (  -0.4079356   1.6486523  -0.0211672), wk =   0.0029297
        k(  112) = (  -0.4079356   1.4131305   0.0000000), wk =   0.0029297
        k(  113) = (  -0.4079356   1.1776088   0.0211672), wk =   0.0029297
        k(  114) = (  -0.4079356   0.9420870   0.0423344), wk =   0.0029297
        k(  115) = (  -0.4079356   0.7065653   0.0635016), wk =   0.0029297
        k(  116) = (  -0.6119035  -0.3532826   0.1905049), wk =   0.0014648
        k(  117) = (  -0.6119035  -0.5888044   0.2116721), wk =   0.0029297
        k(  118) = (  -0.6119035  -0.8243261   0.2328393), wk =   0.0029297
        k(  119) = (  -0.6119035  -1.0598479   0.2540065), wk =   0.0029297
        k(  120) = (  -0.6119035   2.4729784  -0.0635016), wk =   0.0029297
        k(  121) = (  -0.6119035   2.2374566  -0.0423344), wk =   0.0029297
        k(  122) = (  -0.6119035   2.0019349  -0.0211672), wk =   0.0029297
        k(  123) = (  -0.6119035   1.7664131   0.0000000), wk =   0.0029297
        k(  124) = (  -0.6119035   1.5308914   0.0211672), wk =   0.0029297
        k(  125) = (  -0.6119035   1.2953696   0.0423344), wk =   0.0029297
        k(  126) = (  -0.6119035   1.0598479   0.0635016), wk =   0.0029297
        k(  127) = (  -0.6119035   0.8243261   0.0846688), wk =   0.0029297
        k(  128) = (  -0.8158713  -0.4710435   0.2328393), wk =   0.0014648
        k(  129) = (  -0.8158713  -0.7065653   0.2540065), wk =   0.0029297
        k(  130) = (  -0.8158713  -0.9420870   0.2751737), wk =   0.0029297
        k(  131) = (  -0.8158713   2.5907393  -0.0423344), wk =   0.0029297
        k(  132) = (  -0.8158713   2.3552175  -0.0211672), wk =   0.0029297
        k(  133) = (  -0.8158713   2.1196958   0.0000000), wk =   0.0029297
        k(  134) = (  -0.8158713   1.8841740   0.0211672), wk =   0.0029297
        k(  135) = (  -0.8158713   1.6486523   0.0423344), wk =   0.0029297
        k(  136) = (  -0.8158713   1.4131305   0.0635016), wk =   0.0029297
        k(  137) = (  -0.8158713   1.1776088   0.0846688), wk =   0.0029297
        k(  138) = (  -0.8158713   0.9420870   0.1058361), wk =   0.0029297
        k(  139) = (  -1.0198391  -0.5888044   0.2751737), wk =   0.0014648
        k(  140) = (  -1.0198391  -0.8243261   0.2963410), wk =   0.0029297
        k(  141) = (  -1.0198391   2.7085001  -0.0211672), wk =   0.0029297
        k(  142) = (  -1.0198391   2.4729784  -0.0000000), wk =   0.0029297
        k(  143) = (  -1.0198391   2.2374566   0.0211672), wk =   0.0029297
        k(  144) = (  -1.0198391   2.0019349   0.0423344), wk =   0.0029297
        k(  145) = (  -1.0198391   1.7664131   0.0635016), wk =   0.0029297
        k(  146) = (  -1.0198391   1.5308914   0.0846688), wk =   0.0029297
        k(  147) = (  -1.0198391   1.2953696   0.1058361), wk =   0.0029297
        k(  148) = (  -1.0198391   1.0598479   0.1270033), wk =   0.0029297
        k(  149) = (  -1.2238069  -0.7065653   0.3175082), wk =   0.0014648
        k(  150) = (  -1.2238069   2.8262610   0.0000000), wk =   0.0029297
        k(  151) = (  -1.2238069   2.5907393   0.0211672), wk =   0.0029297
        k(  152) = (  -1.2238069   2.3552175   0.0423344), wk =   0.0029297
        k(  153) = (  -1.2238069   2.1196958   0.0635016), wk =   0.0029297
        k(  154) = (  -1.2238069   1.8841740   0.0846688), wk =   0.0029297
        k(  155) = (  -1.2238069   1.6486523   0.1058361), wk =   0.0029297
        k(  156) = (  -1.2238069   1.4131305   0.1270033), wk =   0.0029297
        k(  157) = (  -1.2238069   1.1776088   0.1481705), wk =   0.0029297
        k(  158) = (   1.8357104   1.0598479  -0.3175082), wk =   0.0014648
        k(  159) = (   1.8357104   0.8243261  -0.2963410), wk =   0.0029297
        k(  160) = (   1.8357104   0.5888044  -0.2751737), wk =   0.0029297
        k(  161) = (   1.8357104   0.3532826  -0.2540065), wk =   0.0029297
        k(  162) = (   1.8357104   0.1177609  -0.2328393), wk =   0.0029297
        k(  163) = (   1.8357104  -0.1177609  -0.2116721), wk =   0.0029297
        k(  164) = (   1.8357104  -0.3532826  -0.1905049), wk =   0.0029297
        k(  165) = (   1.8357104  -0.5888044  -0.1693377), wk =   0.0014648
        k(  166) = (   1.6317426   0.9420870  -0.2751737), wk =   0.0014648
        k(  167) = (   1.6317426   0.7065653  -0.2540065), wk =   0.0029297
        k(  168) = (   1.6317426   0.4710435  -0.2328393), wk =   0.0029297
        k(  169) = (   1.6317426   0.2355218  -0.2116721), wk =   0.0029297
        k(  170) = (   1.6317426   0.0000000  -0.1905049), wk =   0.0029297
        k(  171) = (   1.6317426  -0.2355218  -0.1693377), wk =   0.0029297
        k(  172) = (   1.4277747   0.8243261  -0.2328393), wk =   0.0014648
        k(  173) = (   1.4277747   0.5888044  -0.2116721), wk =   0.0029297
        k(  174) = (   1.4277747   0.3532826  -0.1905049), wk =   0.0029297
        k(  175) = (   1.4277747   0.1177609  -0.1693377), wk =   0.0029297
        k(  176) = (   1.4277747  -0.1177609  -0.1481705), wk =   0.0029297
        k(  177) = (   1.2238069   0.7065653  -0.1905049), wk =   0.0014648
        k(  178) = (   1.2238069   0.4710435  -0.1693377), wk =   0.0029297
        k(  179) = (   1.2238069   0.2355218  -0.1481705), wk =   0.0029297
        k(  180) = (   1.2238069   0.0000000  -0.1270033), wk =   0.0029297
        k(  181) = (   1.0198391   0.5888044  -0.1481705), wk =   0.0014648
        k(  182) = (   1.0198391   0.3532826  -0.1270033), wk =   0.0029297
        k(  183) = (   1.0198391   0.1177609  -0.1058361), wk =   0.0029297
        k(  184) = (   0.8158713   0.4710435  -0.1058361), wk =   0.0014648
        k(  185) = (   0.8158713   0.2355218  -0.0846688), wk =   0.0029297
        k(  186) = (   0.6119035   0.3532826  -0.0635016), wk =   0.0014648
        k(  187) = (   0.0000000   0.0000000   0.1270033), wk =   0.0004883
        k(  188) = (   0.0000000  -0.2355218   0.1481705), wk =   0.0014648
        k(  189) = (   0.0000000  -0.4710435   0.1693377), wk =   0.0014648
        k(  190) = (   0.0000000  -0.7065653   0.1905049), wk =   0.0014648
        k(  191) = (   0.0000000  -0.9420870   0.2116721), wk =   0.0014648
        k(  192) = (   0.0000000  -1.1776088   0.2328393), wk =   0.0014648
        k(  193) = (  -0.0000000   2.3552175  -0.0846688), wk =   0.0014648
        k(  194) = (  -0.0000000   2.1196958  -0.0635016), wk =   0.0014648
        k(  195) = (  -0.0000000   1.8841740  -0.0423344), wk =   0.0014648
        k(  196) = (  -0.0000000   1.6486523  -0.0211672), wk =   0.0014648
        k(  197) = (  -0.0000000   1.4131305   0.0000000), wk =   0.0014648
        k(  198) = (  -0.0000000   1.1776088   0.0211672), wk =   0.0014648
        k(  199) = (  -0.0000000   0.9420870   0.0423344), wk =   0.0014648
        k(  200) = (  -0.2039678  -0.1177609   0.1693377), wk =   0.0014648
        k(  201) = (  -0.2039678  -0.3532826   0.1905049), wk =   0.0029297
        k(  202) = (  -0.2039678  -0.5888044   0.2116721), wk =   0.0029297
        k(  203) = (  -0.2039678  -0.8243261   0.2328393), wk =   0.0029297
        k(  204) = (  -0.2039678  -1.0598479   0.2540065), wk =   0.0029297
        k(  205) = (  -0.2039678   2.4729784  -0.0635016), wk =   0.0029297
        k(  206) = (  -0.2039678   2.2374566  -0.0423344), wk =   0.0029297
        k(  207) = (  -0.2039678   2.0019349  -0.0211672), wk =   0.0029297
        k(  208) = (  -0.2039678   1.7664131  -0.0000000), wk =   0.0029297
        k(  209) = (  -0.2039678   1.5308914   0.0211672), wk =   0.0029297
        k(  210) = (  -0.2039678   1.2953696   0.0423344), wk =   0.0029297
        k(  211) = (  -0.2039678   1.0598479   0.0635016), wk =   0.0029297
        k(  212) = (  -0.4079356  -0.2355218   0.2116721), wk =   0.0014648
        k(  213) = (  -0.4079356  -0.4710435   0.2328393), wk =   0.0029297
        k(  214) = (  -0.4079356  -0.7065653   0.2540065), wk =   0.0029297
        k(  215) = (  -0.4079356  -0.9420870   0.2751737), wk =   0.0029297
        k(  216) = (  -0.4079356   2.5907393  -0.0423344), wk =   0.0029297
        k(  217) = (  -0.4079356   2.3552175  -0.0211672), wk =   0.0029297
        k(  218) = (  -0.4079356   2.1196958  -0.0000000), wk =   0.0029297
        k(  219) = (  -0.4079356   1.8841740   0.0211672), wk =   0.0029297
        k(  220) = (  -0.4079356   1.6486523   0.0423344), wk =   0.0029297
        k(  221) = (  -0.4079356   1.4131305   0.0635016), wk =   0.0029297
        k(  222) = (  -0.4079356   1.1776088   0.0846688), wk =   0.0029297
        k(  223) = (  -0.6119035  -0.3532826   0.2540065), wk =   0.0014648
        k(  224) = (  -0.6119035  -0.5888044   0.2751737), wk =   0.0029297
        k(  225) = (  -0.6119035  -0.8243261   0.2963410), wk =   0.0029297
        k(  226) = (  -0.6119035   2.7085001  -0.0211672), wk =   0.0029297
        k(  227) = (  -0.6119035   2.4729784   0.0000000), wk =   0.0029297
        k(  228) = (  -0.6119035   2.2374566   0.0211672), wk =   0.0029297
        k(  229) = (  -0.6119035   2.0019349   0.0423344), wk =   0.0029297
        k(  230) = (  -0.6119035   1.7664131   0.0635016), wk =   0.0029297
        k(  231) = (  -0.6119035   1.5308914   0.0846688), wk =   0.0029297
        k(  232) = (  -0.6119035   1.2953696   0.1058361), wk =   0.0029297
        k(  233) = (  -0.8158713  -0.4710435   0.2963410), wk =   0.0014648
        k(  234) = (  -0.8158713  -0.7065653   0.3175082), wk =   0.0029297
        k(  235) = (  -0.8158713   2.8262610   0.0000000), wk =   0.0029297
        k(  236) = (  -0.8158713   2.5907393   0.0211672), wk =   0.0029297
        k(  237) = (  -0.8158713   2.3552175   0.0423344), wk =   0.0029297
        k(  238) = (  -0.8158713   2.1196958   0.0635016), wk =   0.0029297
        k(  239) = (  -0.8158713   1.8841740   0.0846688), wk =   0.0029297
        k(  240) = (  -0.8158713   1.6486523   0.1058361), wk =   0.0029297
        k(  241) = (  -0.8158713   1.4131305   0.1270033), wk =   0.0029297
        k(  242) = (  -1.0198391  -0.5888044   0.3386754), wk =   0.0014648
        k(  243) = (  -1.0198391   2.9440219   0.0211672), wk =   0.0029297
        k(  244) = (  -1.0198391   2.7085001   0.0423344), wk =   0.0029297
        k(  245) = (  -1.0198391   2.4729784   0.0635016), wk =   0.0029297
        k(  246) = (  -1.0198391   2.2374566   0.0846688), wk =   0.0029297
        k(  247) = (  -1.0198391   2.0019349   0.1058361), wk =   0.0029297
        k(  248) = (  -1.0198391   1.7664131   0.1270033), wk =   0.0029297
        k(  249) = (  -1.0198391   1.5308914   0.1481705), wk =   0.0029297
        k(  250) = (   2.0396782   1.1776088  -0.2963410), wk =   0.0014648
        k(  251) = (   2.0396782   0.9420870  -0.2751737), wk =   0.0029297
        k(  252) = (   2.0396782   0.7065653  -0.2540065), wk =   0.0029297
        k(  253) = (   2.0396782   0.4710435  -0.2328393), wk =   0.0029297
        k(  254) = (   2.0396782   0.2355218  -0.2116721), wk =   0.0029297
        k(  255) = (   2.0396782   0.0000000  -0.1905049), wk =   0.0029297
        k(  256) = (   2.0396782  -0.2355218  -0.1693377), wk =   0.0014648
        k(  257) = (   1.8357104   1.0598479  -0.2540065), wk =   0.0014648
        k(  258) = (   1.8357104   0.8243261  -0.2328393), wk =   0.0029297
        k(  259) = (   1.8357104   0.5888044  -0.2116721), wk =   0.0029297
        k(  260) = (   1.8357104   0.3532826  -0.1905049), wk =   0.0029297
        k(  261) = (   1.8357104   0.1177609  -0.1693377), wk =   0.0029297
        k(  262) = (   1.6317426   0.9420870  -0.2116721), wk =   0.0014648
        k(  263) = (   1.6317426   0.7065653  -0.1905049), wk =   0.0029297
        k(  264) = (   1.6317426   0.4710435  -0.1693377), wk =   0.0029297
        k(  265) = (   1.6317426   0.2355218  -0.1481705), wk =   0.0029297
        k(  266) = (   1.4277747   0.8243261  -0.1693377), wk =   0.0014648
        k(  267) = (   1.4277747   0.5888044  -0.1481705), wk =   0.0029297
        k(  268) = (   1.4277747   0.3532826  -0.1270033), wk =   0.0029297
        k(  269) = (   1.2238069   0.7065653  -0.1270033), wk =   0.0014648
        k(  270) = (   1.2238069   0.4710435  -0.1058361), wk =   0.0029297
        k(  271) = (   1.0198391   0.5888044  -0.0846688), wk =   0.0014648
        k(  272) = (   0.0000000  -0.0000000   0.1905049), wk =   0.0004883
        k(  273) = (   0.0000000  -0.2355218   0.2116721), wk =   0.0014648
        k(  274) = (   0.0000000  -0.4710435   0.2328393), wk =   0.0014648
        k(  275) = (   0.0000000  -0.7065653   0.2540065), wk =   0.0014648
        k(  276) = (   0.0000000  -0.9420870   0.2751737), wk =   0.0014648
        k(  277) = (  -0.0000000   2.5907393  -0.0423344), wk =   0.0014648
        k(  278) = (  -0.0000000   2.3552175  -0.0211672), wk =   0.0014648
        k(  279) = (  -0.0000000   2.1196958  -0.0000000), wk =   0.0014648
        k(  280) = (  -0.0000000   1.8841740   0.0211672), wk =   0.0014648
        k(  281) = (  -0.0000000   1.6486523   0.0423344), wk =   0.0014648
        k(  282) = (  -0.0000000   1.4131305   0.0635016), wk =   0.0014648
        k(  283) = (  -0.2039678  -0.1177609   0.2328393), wk =   0.0014648
        k(  284) = (  -0.2039678  -0.3532826   0.2540065), wk =   0.0029297
        k(  285) = (  -0.2039678  -0.5888044   0.2751737), wk =   0.0029297
        k(  286) = (  -0.2039678  -0.8243261   0.2963410), wk =   0.0029297
        k(  287) = (  -0.2039678   2.7085001  -0.0211672), wk =   0.0029297
        k(  288) = (  -0.2039678   2.4729784  -0.0000000), wk =   0.0029297
        k(  289) = (  -0.2039678   2.2374566   0.0211672), wk =   0.0029297
        k(  290) = (  -0.2039678   2.0019349   0.0423344), wk =   0.0029297
        k(  291) = (  -0.2039678   1.7664131   0.0635016), wk =   0.0029297
        k(  292) = (  -0.2039678   1.5308914   0.0846688), wk =   0.0029297
        k(  293) = (  -0.4079356  -0.2355218   0.2751737), wk =   0.0014648
        k(  294) = (  -0.4079356  -0.4710435   0.2963410), wk =   0.0029297
        k(  295) = (  -0.4079356  -0.7065653   0.3175082), wk =   0.0029297
        k(  296) = (  -0.4079356   2.8262610   0.0000000), wk =   0.0029297
        k(  297) = (  -0.4079356   2.5907393   0.0211672), wk =   0.0029297
        k(  298) = (  -0.4079356   2.3552175   0.0423344), wk =   0.0029297
        k(  299) = (  -0.4079356   2.1196958   0.0635016), wk =   0.0029297
        k(  300) = (  -0.4079356   1.8841740   0.0846688), wk =   0.0029297
        k(  301) = (  -0.4079356   1.6486523   0.1058361), wk =   0.0029297
        k(  302) = (  -0.6119035  -0.3532826   0.3175082), wk =   0.0014648
        k(  303) = (  -0.6119035  -0.5888044   0.3386754), wk =   0.0029297
        k(  304) = (  -0.6119035   2.9440219   0.0211672), wk =   0.0029297
        k(  305) = (  -0.6119035   2.7085001   0.0423344), wk =   0.0029297
        k(  306) = (  -0.6119035   2.4729784   0.0635016), wk =   0.0029297
        k(  307) = (  -0.6119035   2.2374566   0.0846688), wk =   0.0029297
        k(  308) = (  -0.6119035   2.0019349   0.1058361), wk =   0.0029297
        k(  309) = (  -0.6119035   1.7664131   0.1270033), wk =   0.0029297
        k(  310) = (  -0.8158713  -0.4710435   0.3598426), wk =   0.0014648
        k(  311) = (  -0.8158713   3.0617828   0.0423344), wk =   0.0029297
        k(  312) = (  -0.8158713   2.8262610   0.0635016), wk =   0.0029297
        k(  313) = (  -0.8158713   2.5907393   0.0846688), wk =   0.0029297
        k(  314) = (  -0.8158713   2.3552175   0.1058361), wk =   0.0029297
        k(  315) = (  -0.8158713   2.1196958   0.1270033), wk =   0.0029297
        k(  316) = (  -0.8158713   1.8841740   0.1481705), wk =   0.0029297
        k(  317) = (   2.2436460   1.2953696  -0.2751737), wk =   0.0014648
        k(  318) = (   2.2436460   1.0598479  -0.2540065), wk =   0.0029297
        k(  319) = (   2.2436460   0.8243261  -0.2328393), wk =   0.0029297
        k(  320) = (   2.2436460   0.5888044  -0.2116721), wk =   0.0029297
        k(  321) = (   2.2436460   0.3532826  -0.1905049), wk =   0.0029297
        k(  322) = (   2.2436460   0.1177609  -0.1693377), wk =   0.0014648
        k(  323) = (   2.0396782   1.1776088  -0.2328393), wk =   0.0014648
        k(  324) = (   2.0396782   0.9420870  -0.2116721), wk =   0.0029297
        k(  325) = (   2.0396782   0.7065653  -0.1905049), wk =   0.0029297
        k(  326) = (   2.0396782   0.4710435  -0.1693377), wk =   0.0029297
        k(  327) = (   1.8357104   1.0598479  -0.1905049), wk =   0.0014648
        k(  328) = (   1.8357104   0.8243261  -0.1693377), wk =   0.0029297
        k(  329) = (   1.8357104   0.5888044  -0.1481705), wk =   0.0029297
        k(  330) = (   1.6317426   0.9420870  -0.1481705), wk =   0.0014648
        k(  331) = (   1.6317426   0.7065653  -0.1270033), wk =   0.0029297
        k(  332) = (   1.4277747   0.8243261  -0.1058361), wk =   0.0014648
        k(  333) = (   0.0000000   0.0000000   0.2540065), wk =   0.0004883
        k(  334) = (   0.0000000  -0.2355218   0.2751737), wk =   0.0014648
        k(  335) = (   0.0000000  -0.4710435   0.2963410), wk =   0.0014648
        k(  336) = (   0.0000000  -0.7065653   0.3175082), wk =   0.0014648
        k(  337) = (  -0.0000000   2.8262610   0.0000000), wk =   0.0014648
        k(  338) = (  -0.0000000   2.5907393   0.0211672), wk =   0.0014648
        k(  339) = (  -0.0000000   2.3552175   0.0423344), wk =   0.0014648
        k(  340) = (  -0.0000000   2.1196958   0.0635016), wk =   0.0014648
        k(  341) = (  -0.0000000   1.8841740   0.0846688), wk =   0.0014648
        k(  342) = (  -0.2039678  -0.1177609   0.2963410), wk =   0.0014648
        k(  343) = (  -0.2039678  -0.3532826   0.3175082), wk =   0.0029297
        k(  344) = (  -0.2039678  -0.5888044   0.3386754), wk =   0.0029297
        k(  345) = (  -0.2039678   2.9440219   0.0211672), wk =   0.0029297
        k(  346) = (  -0.2039678   2.7085001   0.0423344), wk =   0.0029297
        k(  347) = (  -0.2039678   2.4729784   0.0635016), wk =   0.0029297
        k(  348) = (  -0.2039678   2.2374566   0.0846688), wk =   0.0029297
        k(  349) = (  -0.2039678   2.0019349   0.1058361), wk =   0.0029297
        k(  350) = (  -0.4079356  -0.2355218   0.3386754), wk =   0.0014648
        k(  351) = (  -0.4079356  -0.4710435   0.3598426), wk =   0.0029297
        k(  352) = (  -0.4079356   3.0617828   0.0423344), wk =   0.0029297
        k(  353) = (  -0.4079356   2.8262610   0.0635016), wk =   0.0029297
        k(  354) = (  -0.4079356   2.5907393   0.0846688), wk =   0.0029297
        k(  355) = (  -0.4079356   2.3552175   0.1058361), wk =   0.0029297
        k(  356) = (  -0.4079356   2.1196958   0.1270033), wk =   0.0029297
        k(  357) = (  -0.6119035  -0.3532826   0.3810098), wk =   0.0014648
        k(  358) = (  -0.6119035   3.1795437   0.0635016), wk =   0.0029297
        k(  359) = (  -0.6119035   2.9440219   0.0846688), wk =   0.0029297
        k(  360) = (  -0.6119035   2.7085001   0.1058361), wk =   0.0029297
        k(  361) = (  -0.6119035   2.4729784   0.1270033), wk =   0.0029297
        k(  362) = (  -0.6119035   2.2374566   0.1481705), wk =   0.0029297
        k(  363) = (   2.4476138   1.4131305  -0.2540065), wk =   0.0014648
        k(  364) = (   2.4476138   1.1776088  -0.2328393), wk =   0.0029297
        k(  365) = (   2.4476138   0.9420870  -0.2116721), wk =   0.0029297
        k(  366) = (   2.4476138   0.7065653  -0.1905049), wk =   0.0029297
        k(  367) = (   2.4476138   0.4710435  -0.1693377), wk =   0.0014648
        k(  368) = (   2.2436460   1.2953696  -0.2116721), wk =   0.0014648
        k(  369) = (   2.2436460   1.0598479  -0.1905049), wk =   0.0029297
        k(  370) = (   2.2436460   0.8243261  -0.1693377), wk =   0.0029297
        k(  371) = (   2.0396782   1.1776088  -0.1693377), wk =   0.0014648
        k(  372) = (   2.0396782   0.9420870  -0.1481705), wk =   0.0029297
        k(  373) = (   1.8357104   1.0598479  -0.1270033), wk =   0.0014648
        k(  374) = (   0.0000000   0.0000000   0.3175082), wk =   0.0004883
        k(  375) = (   0.0000000  -0.2355218   0.3386754), wk =   0.0014648
        k(  376) = (   0.0000000  -0.4710435   0.3598426), wk =   0.0014648
        k(  377) = (   0.0000000   3.0617828   0.0423344), wk =   0.0014648
        k(  378) = (   0.0000000   2.8262610   0.0635016), wk =   0.0014648
        k(  379) = (   0.0000000   2.5907393   0.0846688), wk =   0.0014648
        k(  380) = (   0.0000000   2.3552175   0.1058361), wk =   0.0014648
        k(  381) = (  -0.2039678  -0.1177609   0.3598426), wk =   0.0014648
        k(  382) = (  -0.2039678  -0.3532826   0.3810098), wk =   0.0029297
        k(  383) = (  -0.2039678   3.1795437   0.0635016), wk =   0.0029297
        k(  384) = (  -0.2039678   2.9440219   0.0846688), wk =   0.0029297
        k(  385) = (  -0.2039678   2.7085001   0.1058361), wk =   0.0029297
        k(  386) = (  -0.2039678   2.4729784   0.1270033), wk =   0.0029297
        k(  387) = (  -0.4079356  -0.2355218   0.4021770), wk =   0.0014648
        k(  388) = (  -0.4079356   3.2973045   0.0846688), wk =   0.0029297
        k(  389) = (  -0.4079356   3.0617828   0.1058361), wk =   0.0029297
        k(  390) = (  -0.4079356   2.8262610   0.1270033), wk =   0.0029297
        k(  391) = (  -0.4079356   2.5907393   0.1481705), wk =   0.0029297
        k(  392) = (   2.6515817   1.5308914  -0.2328393), wk =   0.0014648
        k(  393) = (   2.6515817   1.2953696  -0.2116721), wk =   0.0029297
        k(  394) = (   2.6515817   1.0598479  -0.1905049), wk =   0.0029297
        k(  395) = (   2.6515817   0.8243261  -0.1693377), wk =   0.0014648
        k(  396) = (   2.4476138   1.4131305  -0.1905049), wk =   0.0014648
        k(  397) = (   2.4476138   1.1776088  -0.1693377), wk =   0.0029297
        k(  398) = (   2.2436460   1.2953696  -0.1481705), wk =   0.0014648
        k(  399) = (   0.0000000  -0.0000000   0.3810098), wk =   0.0004883
        k(  400) = (   0.0000000  -0.2355218   0.4021770), wk =   0.0014648
        k(  401) = (  -0.0000000   3.2973045   0.0846688), wk =   0.0014648
        k(  402) = (  -0.0000000   3.0617828   0.1058361), wk =   0.0014648
        k(  403) = (  -0.0000000   2.8262610   0.1270033), wk =   0.0014648
        k(  404) = (  -0.2039678  -0.1177609   0.4233442), wk =   0.0014648
        k(  405) = (  -0.2039678   3.4150654   0.1058361), wk =   0.0029297
        k(  406) = (  -0.2039678   3.1795437   0.1270033), wk =   0.0029297
        k(  407) = (  -0.2039678   2.9440219   0.1481705), wk =   0.0029297
        k(  408) = (   2.8555495   1.6486523  -0.2116721), wk =   0.0014648
        k(  409) = (   2.8555495   1.4131305  -0.1905049), wk =   0.0029297
        k(  410) = (   2.8555495   1.1776088  -0.1693377), wk =   0.0014648
        k(  411) = (   2.6515817   1.5308914  -0.1693377), wk =   0.0014648
        k(  412) = (  -0.0000000  -0.0000000   0.4445114), wk =   0.0004883
        k(  413) = (  -0.0000000   3.5328263   0.1270033), wk =   0.0014648
        k(  414) = (  -0.0000000   3.2973045   0.1481705), wk =   0.0014648
        k(  415) = (   3.0595173   1.7664131  -0.1905049), wk =   0.0014648
        k(  416) = (   3.0595173   1.5308914  -0.1693377), wk =   0.0014648
        k(  417) = (  -0.0000000   0.0000000  -0.5080131), wk =   0.0002441

                       cryst. coord.
        k(    1) = (   0.0000000   0.0000000   0.0000000), wk =   0.0002441
        k(    2) = (   0.0000000   0.0000000   0.0625000), wk =   0.0014648
        k(    3) = (   0.0000000   0.0000000   0.1250000), wk =   0.0014648
        k(    4) = (   0.0000000   0.0000000   0.1875000), wk =   0.0014648
        k(    5) = (   0.0000000   0.0000000   0.2500000), wk =   0.0014648
        k(    6) = (   0.0000000   0.0000000   0.3125000), wk =   0.0014648
        k(    7) = (   0.0000000   0.0000000   0.3750000), wk =   0.0014648
        k(    8) = (   0.0000000   0.0000000   0.4375000), wk =   0.0014648
        k(    9) = (  -0.0000000  -0.0000000  -0.5000000), wk =   0.0007324
        k(   10) = (   0.0000000   0.0625000   0.0625000), wk =   0.0014648
        k(   11) = (  -0.0000000   0.0625000   0.1250000), wk =   0.0029297
        k(   12) = (  -0.0000000   0.0625000   0.1875000), wk =   0.0029297
        k(   13) = (   0.0000000   0.0625000   0.2500000), wk =   0.0029297
        k(   14) = (  -0.0000000   0.0625000   0.3125000), wk =   0.0029297
        k(   15) = (   0.0000000   0.0625000   0.3750000), wk =   0.0029297
        k(   16) = (   0.0000000   0.0625000   0.4375000), wk =   0.0029297
        k(   17) = (  -0.0000000   0.0625000  -0.5000000), wk =   0.0029297
        k(   18) = (   0.0000000   0.0625000  -0.4375000), wk =   0.0029297
        k(   19) = (  -0.0000000   0.0625000  -0.3750000), wk =   0.0029297
        k(   20) = (  -0.0000000   0.0625000  -0.3125000), wk =   0.0029297
        k(   21) = (  -0.0000000   0.0625000  -0.2500000), wk =   0.0029297
        k(   22) = (  -0.0000000   0.0625000  -0.1875000), wk =   0.0029297
        k(   23) = (   0.0000000   0.0625000  -0.1250000), wk =   0.0029297
        k(   24) = (  -0.0000000   0.0625000  -0.0625000), wk =   0.0014648
        k(   25) = (   0.0000000   0.1250000   0.1250000), wk =   0.0014648
        k(   26) = (   0.0000000   0.1250000   0.1875000), wk =   0.0029297
        k(   27) = (  -0.0000000   0.1250000   0.2500000), wk =   0.0029297
        k(   28) = (  -0.0000000   0.1250000   0.3125000), wk =   0.0029297
        k(   29) = (  -0.0000000   0.1250000   0.3750000), wk =   0.0029297
        k(   30) = (   0.0000000   0.1250000   0.4375000), wk =   0.0029297
        k(   31) = (  -0.0000000   0.1250000  -0.5000000), wk =   0.0029297
        k(   32) = (  -0.0000000   0.1250000  -0.4375000), wk =   0.0029297
        k(   33) = (  -0.0000000   0.1250000  -0.3750000), wk =   0.0029297
        k(   34) = (  -0.0000000   0.1250000  -0.3125000), wk =   0.0029297
        k(   35) = (   0.0000000   0.1250000  -0.2500000), wk =   0.0029297
        k(   36) = (  -0.0000000   0.1250000  -0.1875000), wk =   0.0029297
        k(   37) = (  -0.0000000   0.1250000  -0.1250000), wk =   0.0014648
        k(   38) = (  -0.0000000   0.1875000   0.1875000), wk =   0.0014648
        k(   39) = (  -0.0000000   0.1875000   0.2500000), wk =   0.0029297
        k(   40) = (   0.0000000   0.1875000   0.3125000), wk =   0.0029297
        k(   41) = (  -0.0000000   0.1875000   0.3750000), wk =   0.0029297
        k(   42) = (  -0.0000000   0.1875000   0.4375000), wk =   0.0029297
        k(   43) = (  -0.0000000   0.1875000  -0.5000000), wk =   0.0029297
        k(   44) = (  -0.0000000   0.1875000  -0.4375000), wk =   0.0029297
        k(   45) = (  -0.0000000   0.1875000  -0.3750000), wk =   0.0029297
        k(   46) = (  -0.0000000   0.1875000  -0.3125000), wk =   0.0029297
        k(   47) = (  -0.0000000   0.1875000  -0.2500000), wk =   0.0029297
        k(   48) = (  -0.0000000   0.1875000  -0.1875000), wk =   0.0014648
        k(   49) = (   0.0000000   0.2500000   0.2500000), wk =   0.0014648
        k(   50) = (   0.0000000   0.2500000   0.3125000), wk =   0.0029297
        k(   51) = (   0.0000000   0.2500000   0.3750000), wk =   0.0029297
        k(   52) = (  -0.0000000   0.2500000   0.4375000), wk =   0.0029297
        k(   53) = (   0.0000000   0.2500000  -0.5000000), wk =   0.0029297
        k(   54) = (   0.0000000   0.2500000  -0.4375000), wk =   0.0029297
        k(   55) = (  -0.0000000   0.2500000  -0.3750000), wk =   0.0029297
        k(   56) = (  -0.0000000   0.2500000  -0.3125000), wk =   0.0029297
        k(   57) = (  -0.0000000   0.2500000  -0.2500000), wk =   0.0014648
        k(   58) = (   0.0000000   0.3125000   0.3125000), wk =   0.0014648
        k(   59) = (   0.0000000   0.3125000   0.3750000), wk =   0.0029297
        k(   60) = (   0.0000000   0.3125000   0.4375000), wk =   0.0029297
        k(   61) = (  -0.0000000   0.3125000  -0.5000000), wk =   0.0029297
        k(   62) = (  -0.0000000   0.3125000  -0.4375000), wk =   0.0029297
        k(   63) = (   0.0000000   0.3125000  -0.3750000), wk =   0.0029297
        k(   64) = (   0.0000000   0.3125000  -0.3125000), wk =   0.0014648
        k(   65) = (  -0.0000000   0.3750000   0.3750000), wk =   0.0014648
        k(   66) = (   0.0000000   0.3750000   0.4375000), wk =   0.0029297
        k(   67) = (  -0.0000000   0.3750000  -0.5000000), wk =   0.0029297
        k(   68) = (  -0.0000000   0.3750000  -0.4375000), wk =   0.0029297
        k(   69) = (  -0.0000000   0.3750000  -0.3750000), wk =   0.0014648
        k(   70) = (  -0.0000000   0.4375000   0.4375000), wk =   0.0014648
        k(   71) = (  -0.0000000   0.4375000  -0.5000000), wk =   0.0029297
        k(   72) = (  -0.0000000   0.4375000  -0.4375000), wk =   0.0014648
        k(   73) = (  -0.0000000  -0.5000000  -0.5000000), wk =   0.0007324
        k(   74) = (   0.0625000   0.0625000   0.0625000), wk =   0.0004883
        k(   75) = (   0.0625000   0.0625000   0.1250000), wk =   0.0014648
        k(   76) = (   0.0625000   0.0625000   0.1875000), wk =   0.0014648
        k(   77) = (   0.0625000   0.0625000   0.2500000), wk =   0.0014648
        k(   78) = (   0.0625000   0.0625000   0.3125000), wk =   0.0014648
        k(   79) = (   0.0625000   0.0625000   0.3750000), wk =   0.0014648
        k(   80) = (   0.0625000   0.0625000   0.4375000), wk =   0.0014648
        k(   81) = (   0.0625000   0.0625000  -0.5000000), wk =   0.0014648
        k(   82) = (   0.0625000   0.0625000  -0.4375000), wk =   0.0014648
        k(   83) = (   0.0625000   0.0625000  -0.3750000), wk =   0.0014648
        k(   84) = (   0.0625000   0.0625000  -0.3125000), wk =   0.0014648
        k(   85) = (   0.0625000   0.0625000  -0.2500000), wk =   0.0014648
        k(   86) = (   0.0625000   0.0625000  -0.1875000), wk =   0.0014648
        k(   87) = (   0.0625000   0.0625000  -0.1250000), wk =   0.0014648
        k(   88) = (   0.0625000   0.0625000  -0.0625000), wk =   0.0014648
        k(   89) = (   0.0625000   0.1250000   0.1250000), wk =   0.0014648
        k(   90) = (   0.0625000   0.1250000   0.1875000), wk =   0.0029297
        k(   91) = (   0.0625000   0.1250000   0.2500000), wk =   0.0029297
        k(   92) = (   0.0625000   0.1250000   0.3125000), wk =   0.0029297
        k(   93) = (   0.0625000   0.1250000   0.3750000), wk =   0.0029297
        k(   94) = (   0.0625000   0.1250000   0.4375000), wk =   0.0029297
        k(   95) = (   0.0625000   0.1250000  -0.5000000), wk =   0.0029297
        k(   96) = (   0.0625000   0.1250000  -0.4375000), wk =   0.0029297
        k(   97) = (   0.0625000   0.1250000  -0.3750000), wk =   0.0029297
        k(   98) = (   0.0625000   0.1250000  -0.3125000), wk =   0.0029297
        k(   99) = (   0.0625000   0.1250000  -0.2500000), wk =   0.0029297
        k(  100) = (   0.0625000   0.1250000  -0.1875000), wk =   0.0029297
        k(  101) = (   0.0625000   0.1250000  -0.1250000), wk =   0.0029297
        k(  102) = (   0.0625000   0.1250000  -0.0625000), wk =   0.0029297
        k(  103) = (   0.0625000   0.1875000   0.1875000), wk =   0.0014648
        k(  104) = (   0.0625000   0.1875000   0.2500000), wk =   0.0029297
        k(  105) = (   0.0625000   0.1875000   0.3125000), wk =   0.0029297
        k(  106) = (   0.0625000   0.1875000   0.3750000), wk =   0.0029297
        k(  107) = (   0.0625000   0.1875000   0.4375000), wk =   0.0029297
        k(  108) = (   0.0625000   0.1875000  -0.5000000), wk =   0.0029297
        k(  109) = (   0.0625000   0.1875000  -0.4375000), wk =   0.0029297
        k(  110) = (   0.0625000   0.1875000  -0.3750000), wk =   0.0029297
        k(  111) = (   0.0625000   0.1875000  -0.3125000), wk =   0.0029297
        k(  112) = (   0.0625000   0.1875000  -0.2500000), wk =   0.0029297
        k(  113) = (   0.0625000   0.1875000  -0.1875000), wk =   0.0029297
        k(  114) = (   0.0625000   0.1875000  -0.1250000), wk =   0.0029297
        k(  115) = (   0.0625000   0.1875000  -0.0625000), wk =   0.0029297
        k(  116) = (   0.0625000   0.2500000   0.2500000), wk =   0.0014648
        k(  117) = (   0.0625000   0.2500000   0.3125000), wk =   0.0029297
        k(  118) = (   0.0625000   0.2500000   0.3750000), wk =   0.0029297
        k(  119) = (   0.0625000   0.2500000   0.4375000), wk =   0.0029297
        k(  120) = (   0.0625000   0.2500000  -0.5000000), wk =   0.0029297
        k(  121) = (   0.0625000   0.2500000  -0.4375000), wk =   0.0029297
        k(  122) = (   0.0625000   0.2500000  -0.3750000), wk =   0.0029297
        k(  123) = (   0.0625000   0.2500000  -0.3125000), wk =   0.0029297
        k(  124) = (   0.0625000   0.2500000  -0.2500000), wk =   0.0029297
        k(  125) = (   0.0625000   0.2500000  -0.1875000), wk =   0.0029297
        k(  126) = (   0.0625000   0.2500000  -0.1250000), wk =   0.0029297
        k(  127) = (   0.0625000   0.2500000  -0.0625000), wk =   0.0029297
        k(  128) = (   0.0625000   0.3125000   0.3125000), wk =   0.0014648
        k(  129) = (   0.0625000   0.3125000   0.3750000), wk =   0.0029297
        k(  130) = (   0.0625000   0.3125000   0.4375000), wk =   0.0029297
        k(  131) = (   0.0625000   0.3125000  -0.5000000), wk =   0.0029297
        k(  132) = (   0.0625000   0.3125000  -0.4375000), wk =   0.0029297
        k(  133) = (   0.0625000   0.3125000  -0.3750000), wk =   0.0029297
        k(  134) = (   0.0625000   0.3125000  -0.3125000), wk =   0.0029297
        k(  135) = (   0.0625000   0.3125000  -0.2500000), wk =   0.0029297
        k(  136) = (   0.0625000   0.3125000  -0.1875000), wk =   0.0029297
        k(  137) = (   0.0625000   0.3125000  -0.1250000), wk =   0.0029297
        k(  138) = (   0.0625000   0.3125000  -0.0625000), wk =   0.0029297
        k(  139) = (   0.0625000   0.3750000   0.3750000), wk =   0.0014648
        k(  140) = (   0.0625000   0.3750000   0.4375000), wk =   0.0029297
        k(  141) = (   0.0625000   0.3750000  -0.5000000), wk =   0.0029297
        k(  142) = (   0.0625000   0.3750000  -0.4375000), wk =   0.0029297
        k(  143) = (   0.0625000   0.3750000  -0.3750000), wk =   0.0029297
        k(  144) = (   0.0625000   0.3750000  -0.3125000), wk =   0.0029297
        k(  145) = (   0.0625000   0.3750000  -0.2500000), wk =   0.0029297
        k(  146) = (   0.0625000   0.3750000  -0.1875000), wk =   0.0029297
        k(  147) = (   0.0625000   0.3750000  -0.1250000), wk =   0.0029297
        k(  148) = (   0.0625000   0.3750000  -0.0625000), wk =   0.0029297
        k(  149) = (   0.0625000   0.4375000   0.4375000), wk =   0.0014648
        k(  150) = (   0.0625000   0.4375000  -0.5000000), wk =   0.0029297
        k(  151) = (   0.0625000   0.4375000  -0.4375000), wk =   0.0029297
        k(  152) = (   0.0625000   0.4375000  -0.3750000), wk =   0.0029297
        k(  153) = (   0.0625000   0.4375000  -0.3125000), wk =   0.0029297
        k(  154) = (   0.0625000   0.4375000  -0.2500000), wk =   0.0029297
        k(  155) = (   0.0625000   0.4375000  -0.1875000), wk =   0.0029297
        k(  156) = (   0.0625000   0.4375000  -0.1250000), wk =   0.0029297
        k(  157) = (   0.0625000   0.4375000  -0.0625000), wk =   0.0029297
        k(  158) = (   0.0625000  -0.5000000  -0.5000000), wk =   0.0014648
        k(  159) = (   0.0625000  -0.5000000  -0.4375000), wk =   0.0029297
        k(  160) = (   0.0625000  -0.5000000  -0.3750000), wk =   0.0029297
        k(  161) = (   0.0625000  -0.5000000  -0.3125000), wk =   0.0029297
        k(  162) = (   0.0625000  -0.5000000  -0.2500000), wk =   0.0029297
        k(  163) = (   0.0625000  -0.5000000  -0.1875000), wk =   0.0029297
        k(  164) = (   0.0625000  -0.5000000  -0.1250000), wk =   0.0029297
        k(  165) = (   0.0625000  -0.5000000  -0.0625000), wk =   0.0014648
        k(  166) = (   0.0625000  -0.4375000  -0.4375000), wk =   0.0014648
        k(  167) = (   0.0625000  -0.4375000  -0.3750000), wk =   0.0029297
        k(  168) = (   0.0625000  -0.4375000  -0.3125000), wk =   0.0029297
        k(  169) = (   0.0625000  -0.4375000  -0.2500000), wk =   0.0029297
        k(  170) = (   0.0625000  -0.4375000  -0.1875000), wk =   0.0029297
        k(  171) = (   0.0625000  -0.4375000  -0.1250000), wk =   0.0029297
        k(  172) = (   0.0625000  -0.3750000  -0.3750000), wk =   0.0014648
        k(  173) = (   0.0625000  -0.3750000  -0.3125000), wk =   0.0029297
        k(  174) = (   0.0625000  -0.3750000  -0.2500000), wk =   0.0029297
        k(  175) = (   0.0625000  -0.3750000  -0.1875000), wk =   0.0029297
        k(  176) = (   0.0625000  -0.3750000  -0.1250000), wk =   0.0029297
        k(  177) = (   0.0625000  -0.3125000  -0.3125000), wk =   0.0014648
        k(  178) = (   0.0625000  -0.3125000  -0.2500000), wk =   0.0029297
        k(  179) = (   0.0625000  -0.3125000  -0.1875000), wk =   0.0029297
        k(  180) = (   0.0625000  -0.3125000  -0.1250000), wk =   0.0029297
        k(  181) = (   0.0625000  -0.2500000  -0.2500000), wk =   0.0014648
        k(  182) = (   0.0625000  -0.2500000  -0.1875000), wk =   0.0029297
        k(  183) = (   0.0625000  -0.2500000  -0.1250000), wk =   0.0029297
        k(  184) = (   0.0625000  -0.1875000  -0.1875000), wk =   0.0014648
        k(  185) = (   0.0625000  -0.1875000  -0.1250000), wk =   0.0029297
        k(  186) = (   0.0625000  -0.1250000  -0.1250000), wk =   0.0014648
        k(  187) = (   0.1250000   0.1250000   0.1250000), wk =   0.0004883
        k(  188) = (   0.1250000   0.1250000   0.1875000), wk =   0.0014648
        k(  189) = (   0.1250000   0.1250000   0.2500000), wk =   0.0014648
        k(  190) = (   0.1250000   0.1250000   0.3125000), wk =   0.0014648
        k(  191) = (   0.1250000   0.1250000   0.3750000), wk =   0.0014648
        k(  192) = (   0.1250000   0.1250000   0.4375000), wk =   0.0014648
        k(  193) = (   0.1250000   0.1250000  -0.5000000), wk =   0.0014648
        k(  194) = (   0.1250000   0.1250000  -0.4375000), wk =   0.0014648
        k(  195) = (   0.1250000   0.1250000  -0.3750000), wk =   0.0014648
        k(  196) = (   0.1250000   0.1250000  -0.3125000), wk =   0.0014648
        k(  197) = (   0.1250000   0.1250000  -0.2500000), wk =   0.0014648
        k(  198) = (   0.1250000   0.1250000  -0.1875000), wk =   0.0014648
        k(  199) = (   0.1250000   0.1250000  -0.1250000), wk =   0.0014648
        k(  200) = (   0.1250000   0.1875000   0.1875000), wk =   0.0014648
        k(  201) = (   0.1250000   0.1875000   0.2500000), wk =   0.0029297
        k(  202) = (   0.1250000   0.1875000   0.3125000), wk =   0.0029297
        k(  203) = (   0.1250000   0.1875000   0.3750000), wk =   0.0029297
        k(  204) = (   0.1250000   0.1875000   0.4375000), wk =   0.0029297
        k(  205) = (   0.1250000   0.1875000  -0.5000000), wk =   0.0029297
        k(  206) = (   0.1250000   0.1875000  -0.4375000), wk =   0.0029297
        k(  207) = (   0.1250000   0.1875000  -0.3750000), wk =   0.0029297
        k(  208) = (   0.1250000   0.1875000  -0.3125000), wk =   0.0029297
        k(  209) = (   0.1250000   0.1875000  -0.2500000), wk =   0.0029297
        k(  210) = (   0.1250000   0.1875000  -0.1875000), wk =   0.0029297
        k(  211) = (   0.1250000   0.1875000  -0.1250000), wk =   0.0029297
        k(  212) = (   0.1250000   0.2500000   0.2500000), wk =   0.0014648
        k(  213) = (   0.1250000   0.2500000   0.3125000), wk =   0.0029297
        k(  214) = (   0.1250000   0.2500000   0.3750000), wk =   0.0029297
        k(  215) = (   0.1250000   0.2500000   0.4375000), wk =   0.0029297
        k(  216) = (   0.1250000   0.2500000  -0.5000000), wk =   0.0029297
        k(  217) = (   0.1250000   0.2500000  -0.4375000), wk =   0.0029297
        k(  218) = (   0.1250000   0.2500000  -0.3750000), wk =   0.0029297
        k(  219) = (   0.1250000   0.2500000  -0.3125000), wk =   0.0029297
        k(  220) = (   0.1250000   0.2500000  -0.2500000), wk =   0.0029297
        k(  221) = (   0.1250000   0.2500000  -0.1875000), wk =   0.0029297
        k(  222) = (   0.1250000   0.2500000  -0.1250000), wk =   0.0029297
        k(  223) = (   0.1250000   0.3125000   0.3125000), wk =   0.0014648
        k(  224) = (   0.1250000   0.3125000   0.3750000), wk =   0.0029297
        k(  225) = (   0.1250000   0.3125000   0.4375000), wk =   0.0029297
        k(  226) = (   0.1250000   0.3125000  -0.5000000), wk =   0.0029297
        k(  227) = (   0.1250000   0.3125000  -0.4375000), wk =   0.0029297
        k(  228) = (   0.1250000   0.3125000  -0.3750000), wk =   0.0029297
        k(  229) = (   0.1250000   0.3125000  -0.3125000), wk =   0.0029297
        k(  230) = (   0.1250000   0.3125000  -0.2500000), wk =   0.0029297
        k(  231) = (   0.1250000   0.3125000  -0.1875000), wk =   0.0029297
        k(  232) = (   0.1250000   0.3125000  -0.1250000), wk =   0.0029297
        k(  233) = (   0.1250000   0.3750000   0.3750000), wk =   0.0014648
        k(  234) = (   0.1250000   0.3750000   0.4375000), wk =   0.0029297
        k(  235) = (   0.1250000   0.3750000  -0.5000000), wk =   0.0029297
        k(  236) = (   0.1250000   0.3750000  -0.4375000), wk =   0.0029297
        k(  237) = (   0.1250000   0.3750000  -0.3750000), wk =   0.0029297
        k(  238) = (   0.1250000   0.3750000  -0.3125000), wk =   0.0029297
        k(  239) = (   0.1250000   0.3750000  -0.2500000), wk =   0.0029297
        k(  240) = (   0.1250000   0.3750000  -0.1875000), wk =   0.0029297
        k(  241) = (   0.1250000   0.3750000  -0.1250000), wk =   0.0029297
        k(  242) = (   0.1250000   0.4375000   0.4375000), wk =   0.0014648
        k(  243) = (   0.1250000   0.4375000  -0.5000000), wk =   0.0029297
        k(  244) = (   0.1250000   0.4375000  -0.4375000), wk =   0.0029297
        k(  245) = (   0.1250000   0.4375000  -0.3750000), wk =   0.0029297
        k(  246) = (   0.1250000   0.4375000  -0.3125000), wk =   0.0029297
        k(  247) = (   0.1250000   0.4375000  -0.2500000), wk =   0.0029297
        k(  248) = (   0.1250000   0.4375000  -0.1875000), wk =   0.0029297
        k(  249) = (   0.1250000   0.4375000  -0.1250000), wk =   0.0029297
        k(  250) = (   0.1250000  -0.5000000  -0.5000000), wk =   0.0014648
        k(  251) = (   0.1250000  -0.5000000  -0.4375000), wk =   0.0029297
        k(  252) = (   0.1250000  -0.5000000  -0.3750000), wk =   0.0029297
        k(  253) = (   0.1250000  -0.5000000  -0.3125000), wk =   0.0029297
        k(  254) = (   0.1250000  -0.5000000  -0.2500000), wk =   0.0029297
        k(  255) = (   0.1250000  -0.5000000  -0.1875000), wk =   0.0029297
        k(  256) = (   0.1250000  -0.5000000  -0.1250000), wk =   0.0014648
        k(  257) = (   0.1250000  -0.4375000  -0.4375000), wk =   0.0014648
        k(  258) = (   0.1250000  -0.4375000  -0.3750000), wk =   0.0029297
        k(  259) = (   0.1250000  -0.4375000  -0.3125000), wk =   0.0029297
        k(  260) = (   0.1250000  -0.4375000  -0.2500000), wk =   0.0029297
        k(  261) = (   0.1250000  -0.4375000  -0.1875000), wk =   0.0029297
        k(  262) = (   0.1250000  -0.3750000  -0.3750000), wk =   0.0014648
        k(  263) = (   0.1250000  -0.3750000  -0.3125000), wk =   0.0029297
        k(  264) = (   0.1250000  -0.3750000  -0.2500000), wk =   0.0029297
        k(  265) = (   0.1250000  -0.3750000  -0.1875000), wk =   0.0029297
        k(  266) = (   0.1250000  -0.3125000  -0.3125000), wk =   0.0014648
        k(  267) = (   0.1250000  -0.3125000  -0.2500000), wk =   0.0029297
        k(  268) = (   0.1250000  -0.3125000  -0.1875000), wk =   0.0029297
        k(  269) = (   0.1250000  -0.2500000  -0.2500000), wk =   0.0014648
        k(  270) = (   0.1250000  -0.2500000  -0.1875000), wk =   0.0029297
        k(  271) = (   0.1250000  -0.1875000  -0.1875000), wk =   0.0014648
        k(  272) = (   0.1875000   0.1875000   0.1875000), wk =   0.0004883
        k(  273) = (   0.1875000   0.1875000   0.2500000), wk =   0.0014648
        k(  274) = (   0.1875000   0.1875000   0.3125000), wk =   0.0014648
        k(  275) = (   0.1875000   0.1875000   0.3750000), wk =   0.0014648
        k(  276) = (   0.1875000   0.1875000   0.4375000), wk =   0.0014648
        k(  277) = (   0.1875000   0.1875000  -0.5000000), wk =   0.0014648
        k(  278) = (   0.1875000   0.1875000  -0.4375000), wk =   0.0014648
        k(  279) = (   0.1875000   0.1875000  -0.3750000), wk =   0.0014648
        k(  280) = (   0.1875000   0.1875000  -0.3125000), wk =   0.0014648
        k(  281) = (   0.1875000   0.1875000  -0.2500000), wk =   0.0014648
        k(  282) = (   0.1875000   0.1875000  -0.1875000), wk =   0.0014648
        k(  283) = (   0.1875000   0.2500000   0.2500000), wk =   0.0014648
        k(  284) = (   0.1875000   0.2500000   0.3125000), wk =   0.0029297
        k(  285) = (   0.1875000   0.2500000   0.3750000), wk =   0.0029297
        k(  286) = (   0.1875000   0.2500000   0.4375000), wk =   0.0029297
        k(  287) = (   0.1875000   0.2500000  -0.5000000), wk =   0.0029297
        k(  288) = (   0.1875000   0.2500000  -0.4375000), wk =   0.0029297
        k(  289) = (   0.1875000   0.2500000  -0.3750000), wk =   0.0029297
        k(  290) = (   0.1875000   0.2500000  -0.3125000), wk =   0.0029297
        k(  291) = (   0.1875000   0.2500000  -0.2500000), wk =   0.0029297
        k(  292) = (   0.1875000   0.2500000  -0.1875000), wk =   0.0029297
        k(  293) = (   0.1875000   0.3125000   0.3125000), wk =   0.0014648
        k(  294) = (   0.1875000   0.3125000   0.3750000), wk =   0.0029297
        k(  295) = (   0.1875000   0.3125000   0.4375000), wk =   0.0029297
        k(  296) = (   0.1875000   0.3125000  -0.5000000), wk =   0.0029297
        k(  297) = (   0.1875000   0.3125000  -0.4375000), wk =   0.0029297
        k(  298) = (   0.1875000   0.3125000  -0.3750000), wk =   0.0029297
        k(  299) = (   0.1875000   0.3125000  -0.3125000), wk =   0.0029297
        k(  300) = (   0.1875000   0.3125000  -0.2500000), wk =   0.0029297
        k(  301) = (   0.1875000   0.3125000  -0.1875000), wk =   0.0029297
        k(  302) = (   0.1875000   0.3750000   0.3750000), wk =   0.0014648
        k(  303) = (   0.1875000   0.3750000   0.4375000), wk =   0.0029297
        k(  304) = (   0.1875000   0.3750000  -0.5000000), wk =   0.0029297
        k(  305) = (   0.1875000   0.3750000  -0.4375000), wk =   0.0029297
        k(  306) = (   0.1875000   0.3750000  -0.3750000), wk =   0.0029297
        k(  307) = (   0.1875000   0.3750000  -0.3125000), wk =   0.0029297
        k(  308) = (   0.1875000   0.3750000  -0.2500000), wk =   0.0029297
        k(  309) = (   0.1875000   0.3750000  -0.1875000), wk =   0.0029297
        k(  310) = (   0.1875000   0.4375000   0.4375000), wk =   0.0014648
        k(  311) = (   0.1875000   0.4375000  -0.5000000), wk =   0.0029297
        k(  312) = (   0.1875000   0.4375000  -0.4375000), wk =   0.0029297
        k(  313) = (   0.1875000   0.4375000  -0.3750000), wk =   0.0029297
        k(  314) = (   0.1875000   0.4375000  -0.3125000), wk =   0.0029297
        k(  315) = (   0.1875000   0.4375000  -0.2500000), wk =   0.0029297
        k(  316) = (   0.1875000   0.4375000  -0.1875000), wk =   0.0029297
        k(  317) = (   0.1875000  -0.5000000  -0.5000000), wk =   0.0014648
        k(  318) = (   0.1875000  -0.5000000  -0.4375000), wk =   0.0029297
        k(  319) = (   0.1875000  -0.5000000  -0.3750000), wk =   0.0029297
        k(  320) = (   0.1875000  -0.5000000  -0.3125000), wk =   0.0029297
        k(  321) = (   0.1875000  -0.5000000  -0.2500000), wk =   0.0029297
        k(  322) = (   0.1875000  -0.5000000  -0.1875000), wk =   0.0014648
        k(  323) = (   0.1875000  -0.4375000  -0.4375000), wk =   0.0014648
        k(  324) = (   0.1875000  -0.4375000  -0.3750000), wk =   0.0029297
        k(  325) = (   0.1875000  -0.4375000  -0.3125000), wk =   0.0029297
        k(  326) = (   0.1875000  -0.4375000  -0.2500000), wk =   0.0029297
        k(  327) = (   0.1875000  -0.3750000  -0.3750000), wk =   0.0014648
        k(  328) = (   0.1875000  -0.3750000  -0.3125000), wk =   0.0029297
        k(  329) = (   0.1875000  -0.3750000  -0.2500000), wk =   0.0029297
        k(  330) = (   0.1875000  -0.3125000  -0.3125000), wk =   0.0014648
        k(  331) = (   0.1875000  -0.3125000  -0.2500000), wk =   0.0029297
        k(  332) = (   0.1875000  -0.2500000  -0.2500000), wk =   0.0014648
        k(  333) = (   0.2500000   0.2500000   0.2500000), wk =   0.0004883
        k(  334) = (   0.2500000   0.2500000   0.3125000), wk =   0.0014648
        k(  335) = (   0.2500000   0.2500000   0.3750000), wk =   0.0014648
        k(  336) = (   0.2500000   0.2500000   0.4375000), wk =   0.0014648
        k(  337) = (   0.2500000   0.2500000  -0.5000000), wk =   0.0014648
        k(  338) = (   0.2500000   0.2500000  -0.4375000), wk =   0.0014648
        k(  339) = (   0.2500000   0.2500000  -0.3750000), wk =   0.0014648
        k(  340) = (   0.2500000   0.2500000  -0.3125000), wk =   0.0014648
        k(  341) = (   0.2500000   0.2500000  -0.2500000), wk =   0.0014648
        k(  342) = (   0.2500000   0.3125000   0.3125000), wk =   0.0014648
        k(  343) = (   0.2500000   0.3125000   0.3750000), wk =   0.0029297
        k(  344) = (   0.2500000   0.3125000   0.4375000), wk =   0.0029297
        k(  345) = (   0.2500000   0.3125000  -0.5000000), wk =   0.0029297
        k(  346) = (   0.2500000   0.3125000  -0.4375000), wk =   0.0029297
        k(  347) = (   0.2500000   0.3125000  -0.3750000), wk =   0.0029297
        k(  348) = (   0.2500000   0.3125000  -0.3125000), wk =   0.0029297
        k(  349) = (   0.2500000   0.3125000  -0.2500000), wk =   0.0029297
        k(  350) = (   0.2500000   0.3750000   0.3750000), wk =   0.0014648
        k(  351) = (   0.2500000   0.3750000   0.4375000), wk =   0.0029297
        k(  352) = (   0.2500000   0.3750000  -0.5000000), wk =   0.0029297
        k(  353) = (   0.2500000   0.3750000  -0.4375000), wk =   0.0029297
        k(  354) = (   0.2500000   0.3750000  -0.3750000), wk =   0.0029297
        k(  355) = (   0.2500000   0.3750000  -0.3125000), wk =   0.0029297
        k(  356) = (   0.2500000   0.3750000  -0.2500000), wk =   0.0029297
        k(  357) = (   0.2500000   0.4375000   0.4375000), wk =   0.0014648
        k(  358) = (   0.2500000   0.4375000  -0.5000000), wk =   0.0029297
        k(  359) = (   0.2500000   0.4375000  -0.4375000), wk =   0.0029297
        k(  360) = (   0.2500000   0.4375000  -0.3750000), wk =   0.0029297
        k(  361) = (   0.2500000   0.4375000  -0.3125000), wk =   0.0029297
        k(  362) = (   0.2500000   0.4375000  -0.2500000), wk =   0.0029297
        k(  363) = (   0.2500000  -0.5000000  -0.5000000), wk =   0.0014648
        k(  364) = (   0.2500000  -0.5000000  -0.4375000), wk =   0.0029297
        k(  365) = (   0.2500000  -0.5000000  -0.3750000), wk =   0.0029297
        k(  366) = (   0.2500000  -0.5000000  -0.3125000), wk =   0.0029297
        k(  367) = (   0.2500000  -0.5000000  -0.2500000), wk =   0.0014648
        k(  368) = (   0.2500000  -0.4375000  -0.4375000), wk =   0.0014648
        k(  369) = (   0.2500000  -0.4375000  -0.3750000), wk =   0.0029297
        k(  370) = (   0.2500000  -0.4375000  -0.3125000), wk =   0.0029297
        k(  371) = (   0.2500000  -0.3750000  -0.3750000), wk =   0.0014648
        k(  372) = (   0.2500000  -0.3750000  -0.3125000), wk =   0.0029297
        k(  373) = (   0.2500000  -0.3125000  -0.3125000), wk =   0.0014648
        k(  374) = (   0.3125000   0.3125000   0.3125000), wk =   0.0004883
        k(  375) = (   0.3125000   0.3125000   0.3750000), wk =   0.0014648
        k(  376) = (   0.3125000   0.3125000   0.4375000), wk =   0.0014648
        k(  377) = (   0.3125000   0.3125000  -0.5000000), wk =   0.0014648
        k(  378) = (   0.3125000   0.3125000  -0.4375000), wk =   0.0014648
        k(  379) = (   0.3125000   0.3125000  -0.3750000), wk =   0.0014648
        k(  380) = (   0.3125000   0.3125000  -0.3125000), wk =   0.0014648
        k(  381) = (   0.3125000   0.3750000   0.3750000), wk =   0.0014648
        k(  382) = (   0.3125000   0.3750000   0.4375000), wk =   0.0029297
        k(  383) = (   0.3125000   0.3750000  -0.5000000), wk =   0.0029297
        k(  384) = (   0.3125000   0.3750000  -0.4375000), wk =   0.0029297
        k(  385) = (   0.3125000   0.3750000  -0.3750000), wk =   0.0029297
        k(  386) = (   0.3125000   0.3750000  -0.3125000), wk =   0.0029297
        k(  387) = (   0.3125000   0.4375000   0.4375000), wk =   0.0014648
        k(  388) = (   0.3125000   0.4375000  -0.5000000), wk =   0.0029297
        k(  389) = (   0.3125000   0.4375000  -0.4375000), wk =   0.0029297
        k(  390) = (   0.3125000   0.4375000  -0.3750000), wk =   0.0029297
        k(  391) = (   0.3125000   0.4375000  -0.3125000), wk =   0.0029297
        k(  392) = (   0.3125000  -0.5000000  -0.5000000), wk =   0.0014648
        k(  393) = (   0.3125000  -0.5000000  -0.4375000), wk =   0.0029297
        k(  394) = (   0.3125000  -0.5000000  -0.3750000), wk =   0.0029297
        k(  395) = (   0.3125000  -0.5000000  -0.3125000), wk =   0.0014648
        k(  396) = (   0.3125000  -0.4375000  -0.4375000), wk =   0.0014648
        k(  397) = (   0.3125000  -0.4375000  -0.3750000), wk =   0.0029297
        k(  398) = (   0.3125000  -0.3750000  -0.3750000), wk =   0.0014648
        k(  399) = (   0.3750000   0.3750000   0.3750000), wk =   0.0004883
        k(  400) = (   0.3750000   0.3750000   0.4375000), wk =   0.0014648
        k(  401) = (   0.3750000   0.3750000  -0.5000000), wk =   0.0014648
        k(  402) = (   0.3750000   0.3750000  -0.4375000), wk =   0.0014648
        k(  403) = (   0.3750000   0.3750000  -0.3750000), wk =   0.0014648
        k(  404) = (   0.3750000   0.4375000   0.4375000), wk =   0.0014648
        k(  405) = (   0.3750000   0.4375000  -0.5000000), wk =   0.0029297
        k(  406) = (   0.3750000   0.4375000  -0.4375000), wk =   0.0029297
        k(  407) = (   0.3750000   0.4375000  -0.3750000), wk =   0.0029297
        k(  408) = (   0.3750000  -0.5000000  -0.5000000), wk =   0.0014648
        k(  409) = (   0.3750000  -0.5000000  -0.4375000), wk =   0.0029297
        k(  410) = (   0.3750000  -0.5000000  -0.3750000), wk =   0.0014648
        k(  411) = (   0.3750000  -0.4375000  -0.4375000), wk =   0.0014648
        k(  412) = (   0.4375000   0.4375000   0.4375000), wk =   0.0004883
        k(  413) = (   0.4375000   0.4375000  -0.5000000), wk =   0.0014648
        k(  414) = (   0.4375000   0.4375000  -0.4375000), wk =   0.0014648
        k(  415) = (   0.4375000  -0.5000000  -0.5000000), wk =   0.0014648
        k(  416) = (   0.4375000  -0.5000000  -0.4375000), wk =   0.0014648
        k(  417) = (  -0.5000000  -0.5000000  -0.5000000), wk =   0.0002441

     Dense  grid:   257953 G-vectors     FFT dimensions: ( 192, 192, 192)

     Dynamical RAM for                 wfc:       2.43 MB

     Dynamical RAM for     wfc (w. buffer):     257.09 MB

     Dynamical RAM for           str. fact:       0.18 MB

     Dynamical RAM for           local pot:       0.00 MB

     Dynamical RAM for          nlocal pot:       1.83 MB

     Dynamical RAM for                qrad:      13.81 MB

     Dynamical RAM for          rho,v,vnew:      10.86 MB

     Dynamical RAM for               rhoin:       3.62 MB

     Dynamical RAM for            rho*nmix:       3.94 MB

     Dynamical RAM for           G-vectors:       0.26 MB

     Dynamical RAM for          h,s,v(r/c):       1.14 MB

     Dynamical RAM for          <psi|beta>:       1.15 MB

     Dynamical RAM for                 psi:       4.85 MB

     Dynamical RAM for                hpsi:       4.85 MB

     Dynamical RAM for      wfcinit/wfcrot:       4.76 MB

     Estimated static dynamical RAM per process >     294.65 MB

     Estimated max dynamical RAM per process >     310.58 MB

     Estimated total dynamical RAM >      76.91 GB
     Generating pointlists ...
     new r_m :   0.0885 (alat units)  2.3262 (a.u.) for type    1
     new r_m :   0.0875 (alat units)  2.2989 (a.u.) for type    2
     new r_m :   0.0875 (alat units)  2.2989 (a.u.) for type    3

     Initial potential from superposition of free atoms

     starting charge     156.9976, renormalised to     157.0000

 ==============================================================================
     atom number    1 relative position :    0.0000   0.0000   0.0000
     charge :    13.714876  (integrated on a sphere of radius 0.089)
     magnetization :          0.000000    0.000000   13.452244
     magnetization/charge:    0.000000    0.000000    0.980851
     polar coord.: r, theta, phi [deg] :    13.452244    0.000000  360.000000

 ==============================================================================

 ==============================================================================
     atom number    2 relative position :   -0.0000   0.1769   0.7133
     charge :    20.788369  (integrated on a sphere of radius 0.087)
     magnetization :          0.000000    0.000000    0.001973
     magnetization/charge:    0.000000    0.000000    0.000095
     polar coord.: r, theta, phi [deg] :     0.001973    0.000000  360.000000

 ==============================================================================

 ==============================================================================
     atom number    3 relative position :   -0.0000   0.1769   0.2709
     charge :    20.788369  (integrated on a sphere of radius 0.087)
     magnetization :          0.000000    0.000000    0.001973
     magnetization/charge:    0.000000    0.000000    0.000095
     polar coord.: r, theta, phi [deg] :     0.001973    0.000000  360.000000

 ==============================================================================

 ==============================================================================
     atom number    4 relative position :    0.1532   0.0885   0.1215
     charge :    21.690244  (integrated on a sphere of radius 0.087)
     magnetization :          0.000000    0.000000    0.098750
     magnetization/charge:    0.000000    0.000000    0.004553
     polar coord.: r, theta, phi [deg] :     0.098750    0.000000  360.000000

 ==============================================================================

 ==============================================================================
     atom number    5 relative position :    0.0000   0.0000   0.8628
     charge :    21.690244  (integrated on a sphere of radius 0.087)
     magnetization :          0.000000    0.000000    0.098750
     magnetization/charge:    0.000000    0.000000    0.004553
     polar coord.: r, theta, phi [deg] :     0.098750    0.000000  360.000000

 ==============================================================================

 ==============================================================================
     atom number    6 relative position :    0.1532   0.0885   0.5964
     charge :    21.675198  (integrated on a sphere of radius 0.087)
     magnetization :          0.000000    0.000000    0.000057
     magnetization/charge:    0.000000    0.000000    0.000003
     polar coord.: r, theta, phi [deg] :     0.000057    0.000000  360.000000

 ==============================================================================

[...]
     1.0000   1.0000   1.0000   1.0000   1.0000   1.0000   1.0000   1.0000
     1.0000   1.0000   1.0000   1.0000   1.0000   1.0000   1.0000   1.0000
     1.0000   1.0000   1.0000   1.0000   1.0000   1.0000   1.0000   1.0000
     1.0000   1.0000   1.0000   1.0000   1.0000   1.0000   1.0000   1.0000
     1.0000   1.0000   1.0000   1.0000   1.0000   1.0000   1.0000   1.0000
     1.0000   1.0000   1.0000   1.0000   1.0000   1.0000   1.0000   1.0000
     1.0000   1.0000   1.0000   1.0000   1.0000   1.0000   1.0000   1.0000
     1.0000   1.0000   1.0000   1.0000   1.0000   1.0000   1.0000   1.0000
     1.0000   1.0000   1.0000   1.0000   1.0000   1.0000   1.0000   1.0000
     1.0000   1.0000   1.0000   1.0000   1.0000   1.0000   1.0000   1.0000
     1.0000   1.0000   1.0000   1.0000   1.0000   1.0000   1.0000   1.0000
     1.0000   1.0000   1.0000   1.0000   1.0000   1.0000   1.0000   1.0000
     1.0000   1.0000   1.0000   1.0000   1.0000   1.0000   1.0000   1.0000
     1.0000   1.0000   1.0000   1.0000   1.0000   0.0000

          k =-0.0000 3.5328 0.1270 ( 32166 PWs)   bands (ev):

  -148.6788-148.6788-148.6736-148.6736-148.1762-148.1762-148.1723-148.1723
  -133.8209-133.8209-133.8160-133.8160-105.5818-105.5818-105.5798-105.5798
  -105.0785-105.0785-105.0767-105.0767 -95.8511 -95.8511 -95.8450 -95.8450
   -95.8378 -95.8378 -95.8363 -95.8362 -95.3479 -95.3479 -95.3468 -95.3468
   -95.3321 -95.3321 -95.3275 -95.3275 -92.8533 -92.8533 -92.8511 -92.8511
   -84.2417 -84.2417 -84.2390 -84.2390 -84.2366 -84.2366 -84.2361 -84.2361
   -70.7558 -66.2785 -40.1335 -39.7020 -39.2201 -35.5754 -35.1472 -34.8211
   -27.1452 -27.1446 -27.1389 -27.1383 -27.1290 -27.1273 -27.1271 -27.1255
   -26.6384 -26.6377 -26.6368 -26.6361 -26.6185 -26.6182 -26.6143 -26.6140
   -25.6833 -25.6832 -25.6727 -25.6723 -25.6700 -25.6673 -25.6642 -25.6615
   -25.6593 -25.6586 -25.6575 -25.6566 -25.1716 -25.1710 -25.1707 -25.1701
   -25.1654 -25.1645 -25.1617 -25.1607 -25.1472 -25.1470 -25.1402 -25.1401
   -19.5274 -19.5274 -19.5217 -19.5217 -19.5207 -19.5207 -19.5193 -19.5192
   -18.2878 -18.2878 -18.2817 -18.2817 -18.2793 -18.2793 -18.2760 -18.2760
   -18.2757 -18.2757 -18.2748 -18.2748  -2.4118  -2.3545  -2.1984  -2.1367
    -0.8554  -0.7698  -0.5584  -0.5069   2.6085   2.6675   2.8676   2.9592
     6.6849   7.0398   7.2136   7.2886   7.6770   7.7321   7.7719   7.7822
     7.9989   8.2069   8.2854   8.4751   8.4906   8.6456   8.7004   8.7655
     8.8194   9.0021   9.1811   9.2698   9.3107   9.8133   9.9095   9.9682
    10.1232  10.1389  10.3626  10.6234  10.6442  11.0199

     occupation numbers 
     1.0000   1.0000   1.0000   1.0000   1.0000   1.0000   1.0000   1.0000
     1.0000   1.0000   1.0000   1.0000   1.0000   1.0000   1.0000   1.0000
     1.0000   1.0000   1.0000   1.0000   1.0000   1.0000   1.0000   1.0000
     1.0000   1.0000   1.0000   1.0000   1.0000   1.0000   1.0000   1.0000
     1.0000   1.0000   1.0000   1.0000   1.0000   1.0000   1.0000   1.0000
     1.0000   1.0000   1.0000   1.0000   1.0000   1.0000   1.0000   1.0000
     1.0000   1.0000   1.0000   1.0000   1.0000   1.0000   1.0000   1.0000
     1.0000   1.0000   1.0000   1.0000   1.0000   1.0000   1.0000   1.0000
     1.0000   1.0000   1.0000   1.0000   1.0000   1.0000   1.0000   1.0000
     1.0000   1.0000   1.0000   1.0000   1.0000   1.0000   1.0000   1.0000
     1.0000   1.0000   1.0000   1.0000   1.0000   1.0000   1.0000   1.0000
     1.0000   1.0000   1.0000   1.0000   1.0000   1.0000   1.0000   1.0000
     1.0000   1.0000   1.0000   1.0000   1.0000   1.0000   1.0000   1.0000
     1.0000   1.0000   1.0000   1.0000   1.0000   1.0000   1.0000   1.0000
     1.0000   1.0000   1.0000   1.0000   1.0000   1.0000   1.0000   1.0000
     1.0000   1.0000   1.0000   1.0000   1.0000   1.0000   1.0000   1.0000
     1.0000   1.0000   1.0000   1.0000   1.0000   1.0000   1.0000   1.0000
     1.0000   1.0000   1.0000   1.0000   1.0000   1.0000   1.0000   1.0000
     1.0000   1.0000   1.0000   1.0000   1.0000   1.0000   1.0000   1.0000
     1.0000   1.0000   1.0000   1.0000   1.0000   0.0000

          k =-0.0000 3.2973 0.1482 ( 32200 PWs)   bands (ev):

  -148.6788-148.6788-148.6736-148.6736-148.1762-148.1762-148.1723-148.1723
  -133.8209-133.8209-133.8160-133.8160-105.5818-105.5818-105.5798-105.5798
  -105.0785-105.0785-105.0767-105.0767 -95.8511 -95.8511 -95.8450 -95.8450
   -95.8378 -95.8378 -95.8363 -95.8362 -95.3479 -95.3479 -95.3468 -95.3468
   -95.3321 -95.3321 -95.3275 -95.3275 -92.8533 -92.8533 -92.8511 -92.8511
   -84.2417 -84.2417 -84.2390 -84.2390 -84.2366 -84.2366 -84.2361 -84.2361
   -70.7558 -66.2785 -40.1336 -39.7020 -39.2201 -35.5755 -35.1472 -34.8211
   -27.1451 -27.1446 -27.1388 -27.1382 -27.1289 -27.1273 -27.1270 -27.1255
   -26.6383 -26.6377 -26.6368 -26.6361 -26.6184 -26.6182 -26.6142 -26.6140
   -25.6832 -25.6831 -25.6726 -25.6722 -25.6700 -25.6674 -25.6642 -25.6616
   -25.6592 -25.6585 -25.6574 -25.6566 -25.1715 -25.1710 -25.1706 -25.1701
   -25.1654 -25.1645 -25.1617 -25.1608 -25.1470 -25.1469 -25.1401 -25.1400
   -19.5273 -19.5273 -19.5217 -19.5217 -19.5205 -19.5205 -19.5193 -19.5193
   -18.2876 -18.2876 -18.2819 -18.2819 -18.2792 -18.2792 -18.2758 -18.2758
   -18.2755 -18.2755 -18.2750 -18.2750  -2.3076  -2.2504  -2.0956  -2.0341
    -0.7818  -0.6985  -0.5036  -0.4519   2.5618   2.6210   2.7872   2.8729
     6.5333   6.8699   7.0613   7.2569   7.2854   7.3132   7.7008   7.7465
     7.8054   7.9540   8.0809   8.2033   8.2570   8.3817   8.4418   8.5310
     8.5625   8.9111   8.9861   9.0633   9.1935   9.4377   9.7398   9.8308
     9.9809  10.2531  10.4449  10.5346  10.6232  11.1300

     occupation numbers 
     1.0000   1.0000   1.0000   1.0000   1.0000   1.0000   1.0000   1.0000
     1.0000   1.0000   1.0000   1.0000   1.0000   1.0000   1.0000   1.0000
     1.0000   1.0000   1.0000   1.0000   1.0000   1.0000   1.0000   1.0000
     1.0000   1.0000   1.0000   1.0000   1.0000   1.0000   1.0000   1.0000
     1.0000   1.0000   1.0000   1.0000   1.0000   1.0000   1.0000   1.0000
     1.0000   1.0000   1.0000   1.0000   1.0000   1.0000   1.0000   1.0000
     1.0000   1.0000   1.0000   1.0000   1.0000   1.0000   1.0000   1.0000
     1.0000   1.0000   1.0000   1.0000   1.0000   1.0000   1.0000   1.0000
     1.0000   1.0000   1.0000   1.0000   1.0000   1.0000   1.0000   1.0000
     1.0000   1.0000   1.0000   1.0000   1.0000   1.0000   1.0000   1.0000
     1.0000   1.0000   1.0000   1.0000   1.0000   1.0000   1.0000   1.0000
     1.0000   1.0000   1.0000   1.0000   1.0000   1.0000   1.0000   1.0000
     1.0000   1.0000   1.0000   1.0000   1.0000   1.0000   1.0000   1.0000
     1.0000   1.0000   1.0000   1.0000   1.0000   1.0000   1.0000   1.0000
     1.0000   1.0000   1.0000   1.0000   1.0000   1.0000   1.0000   1.0000
     1.0000   1.0000   1.0000   1.0000   1.0000   1.0000   1.0000   1.0000
     1.0000   1.0000   1.0000   1.0000   1.0000   1.0000   1.0000   1.0000
     1.0000   1.0000   1.0000   1.0000   1.0000   1.0000   1.0000   1.0000
     1.0000   1.0000   1.0000   1.0000   1.0000   1.0000   1.0000   1.0000
     1.0000   1.0000   1.0000   1.0000   1.0000   0.0000

          k = 3.0595 1.7664-0.1905 ( 32157 PWs)   bands (ev):

  -148.6788-148.6788-148.6736-148.6736-148.1762-148.1762-148.1723-148.1723
  -133.8209-133.8209-133.8160-133.8160-105.5818-105.5818-105.5798-105.5798
  -105.0785-105.0785-105.0767-105.0767 -95.8511 -95.8511 -95.8450 -95.8450
   -95.8378 -95.8378 -95.8363 -95.8362 -95.3479 -95.3479 -95.3468 -95.3468
   -95.3321 -95.3321 -95.3275 -95.3275 -92.8533 -92.8533 -92.8511 -92.8511
   -84.2417 -84.2417 -84.2390 -84.2390 -84.2366 -84.2366 -84.2361 -84.2361
   -70.7558 -66.2785 -40.1335 -39.7020 -39.2201 -35.5754 -35.1472 -34.8211
   -27.1452 -27.1446 -27.1389 -27.1383 -27.1290 -27.1273 -27.1271 -27.1255
   -26.6384 -26.6377 -26.6368 -26.6361 -26.6185 -26.6182 -26.6143 -26.6140
   -25.6833 -25.6832 -25.6727 -25.6723 -25.6700 -25.6673 -25.6642 -25.6615
   -25.6593 -25.6586 -25.6575 -25.6566 -25.1716 -25.1710 -25.1707 -25.1701
   -25.1654 -25.1645 -25.1617 -25.1607 -25.1472 -25.1470 -25.1402 -25.1401
   -19.5274 -19.5274 -19.5217 -19.5217 -19.5207 -19.5207 -19.5193 -19.5192
   -18.2878 -18.2878 -18.2817 -18.2817 -18.2793 -18.2793 -18.2760 -18.2760
   -18.2757 -18.2757 -18.2748 -18.2748  -2.4113  -2.3541  -2.1992  -2.1373
    -0.8522  -0.7665  -0.5617  -0.5104   2.6185   2.6754   2.8573   2.9510
     6.6895   7.0440   7.2183   7.2899   7.6766   7.7228   7.7736   7.7807
     7.9987   8.1961   8.2762   8.4690   8.4935   8.6271   8.7076   8.7646
     8.8197   9.0286   9.1810   9.2864   9.3362   9.8090   9.8984   9.9516
    10.1118  10.1351  10.3582  10.5884  10.6558  11.0527

     occupation numbers 
     1.0000   1.0000   1.0000   1.0000   1.0000   1.0000   1.0000   1.0000
     1.0000   1.0000   1.0000   1.0000   1.0000   1.0000   1.0000   1.0000
     1.0000   1.0000   1.0000   1.0000   1.0000   1.0000   1.0000   1.0000
     1.0000   1.0000   1.0000   1.0000   1.0000   1.0000   1.0000   1.0000
     1.0000   1.0000   1.0000   1.0000   1.0000   1.0000   1.0000   1.0000
     1.0000   1.0000   1.0000   1.0000   1.0000   1.0000   1.0000   1.0000
     1.0000   1.0000   1.0000   1.0000   1.0000   1.0000   1.0000   1.0000
     1.0000   1.0000   1.0000   1.0000   1.0000   1.0000   1.0000   1.0000
     1.0000   1.0000   1.0000   1.0000   1.0000   1.0000   1.0000   1.0000
     1.0000   1.0000   1.0000   1.0000   1.0000   1.0000   1.0000   1.0000
     1.0000   1.0000   1.0000   1.0000   1.0000   1.0000   1.0000   1.0000
     1.0000   1.0000   1.0000   1.0000   1.0000   1.0000   1.0000   1.0000
     1.0000   1.0000   1.0000   1.0000   1.0000   1.0000   1.0000   1.0000
     1.0000   1.0000   1.0000   1.0000   1.0000   1.0000   1.0000   1.0000
     1.0000   1.0000   1.0000   1.0000   1.0000   1.0000   1.0000   1.0000
     1.0000   1.0000   1.0000   1.0000   1.0000   1.0000   1.0000   1.0000
     1.0000   1.0000   1.0000   1.0000   1.0000   1.0000   1.0000   1.0000
     1.0000   1.0000   1.0000   1.0000   1.0000   1.0000   1.0000   1.0000
     1.0000   1.0000   1.0000   1.0000   1.0000   1.0000   1.0000   1.0000
     1.0000   1.0000   1.0000   1.0000   1.0000   0.0000

          k = 3.0595 1.5309-0.1693 ( 32198 PWs)   bands (ev):

  -148.6788-148.6788-148.6736-148.6736-148.1762-148.1762-148.1723-148.1723
  -133.8209-133.8209-133.8160-133.8160-105.5818-105.5818-105.5798-105.5798
  -105.0785-105.0785-105.0767-105.0767 -95.8511 -95.8511 -95.8450 -95.8450
   -95.8378 -95.8378 -95.8363 -95.8362 -95.3479 -95.3479 -95.3468 -95.3468
   -95.3321 -95.3321 -95.3275 -95.3275 -92.8533 -92.8533 -92.8511 -92.8511
   -84.2417 -84.2417 -84.2390 -84.2390 -84.2366 -84.2366 -84.2361 -84.2361
   -70.7558 -66.2785 -40.1335 -39.7020 -39.2201 -35.5755 -35.1472 -34.8211
   -27.1452 -27.1446 -27.1388 -27.1382 -27.1289 -27.1273 -27.1270 -27.1255
   -26.6384 -26.6377 -26.6368 -26.6361 -26.6184 -26.6182 -26.6143 -26.6140
   -25.6833 -25.6831 -25.6726 -25.6722 -25.6700 -25.6674 -25.6642 -25.6616
   -25.6592 -25.6586 -25.6575 -25.6566 -25.1716 -25.1710 -25.1707 -25.1701
   -25.1654 -25.1645 -25.1617 -25.1608 -25.1471 -25.1470 -25.1401 -25.1400
   -19.5273 -19.5273 -19.5217 -19.5217 -19.5206 -19.5206 -19.5193 -19.5193
   -18.2877 -18.2877 -18.2819 -18.2819 -18.2792 -18.2792 -18.2759 -18.2758
   -18.2757 -18.2756 -18.2749 -18.2749  -2.3418  -2.2847  -2.1302  -2.0686
    -0.8037  -0.7195  -0.5238  -0.4723   2.5864   2.6439   2.8075   2.8968
     6.5871   6.9372   7.1063   7.2637   7.4527   7.4611   7.7221   7.7550
     7.8639   8.0255   8.0861   8.1956   8.2315   8.3945   8.5733   8.6148
     8.7061   8.9700   9.1379   9.2206   9.2823   9.5162   9.7146   9.7997
     9.9756  10.1687  10.3501  10.6058  10.7136  11.2586

     occupation numbers 
     1.0000   1.0000   1.0000   1.0000   1.0000   1.0000   1.0000   1.0000
     1.0000   1.0000   1.0000   1.0000   1.0000   1.0000   1.0000   1.0000
     1.0000   1.0000   1.0000   1.0000   1.0000   1.0000   1.0000   1.0000
     1.0000   1.0000   1.0000   1.0000   1.0000   1.0000   1.0000   1.0000
     1.0000   1.0000   1.0000   1.0000   1.0000   1.0000   1.0000   1.0000
     1.0000   1.0000   1.0000   1.0000   1.0000   1.0000   1.0000   1.0000
     1.0000   1.0000   1.0000   1.0000   1.0000   1.0000   1.0000   1.0000
     1.0000   1.0000   1.0000   1.0000   1.0000   1.0000   1.0000   1.0000
     1.0000   1.0000   1.0000   1.0000   1.0000   1.0000   1.0000   1.0000
     1.0000   1.0000   1.0000   1.0000   1.0000   1.0000   1.0000   1.0000
     1.0000   1.0000   1.0000   1.0000   1.0000   1.0000   1.0000   1.0000
     1.0000   1.0000   1.0000   1.0000   1.0000   1.0000   1.0000   1.0000
     1.0000   1.0000   1.0000   1.0000   1.0000   1.0000   1.0000   1.0000
     1.0000   1.0000   1.0000   1.0000   1.0000   1.0000   1.0000   1.0000
     1.0000   1.0000   1.0000   1.0000   1.0000   1.0000   1.0000   1.0000
     1.0000   1.0000   1.0000   1.0000   1.0000   1.0000   1.0000   1.0000
     1.0000   1.0000   1.0000   1.0000   1.0000   1.0000   1.0000   1.0000
     1.0000   1.0000   1.0000   1.0000   1.0000   1.0000   1.0000   1.0000
     1.0000   1.0000   1.0000   1.0000   1.0000   1.0000   1.0000   1.0000
     1.0000   1.0000   1.0000   1.0000   1.0000   0.0000

          k =-0.0000 0.0000-0.5080 ( 32154 PWs)   bands (ev):

  -148.6788-148.6788-148.6736-148.6736-148.1762-148.1762-148.1723-148.1723
  -133.8209-133.8209-133.8160-133.8160-105.5818-105.5818-105.5798-105.5798
  -105.0785-105.0785-105.0767-105.0767 -95.8511 -95.8511 -95.8450 -95.8450
   -95.8378 -95.8378 -95.8363 -95.8362 -95.3479 -95.3479 -95.3468 -95.3468
   -95.3321 -95.3321 -95.3275 -95.3275 -92.8533 -92.8533 -92.8511 -92.8511
   -84.2417 -84.2417 -84.2390 -84.2390 -84.2366 -84.2366 -84.2361 -84.2361
   -70.7558 -66.2785 -40.1335 -39.7020 -39.2200 -35.5754 -35.1472 -34.8210
   -27.1452 -27.1447 -27.1389 -27.1383 -27.1290 -27.1273 -27.1271 -27.1255
   -26.6384 -26.6377 -26.6368 -26.6361 -26.6185 -26.6182 -26.6143 -26.6140
   -25.6834 -25.6832 -25.6727 -25.6723 -25.6701 -25.6673 -25.6642 -25.6615
   -25.6593 -25.6586 -25.6576 -25.6566 -25.1716 -25.1710 -25.1707 -25.1701
   -25.1654 -25.1644 -25.1617 -25.1607 -25.1472 -25.1471 -25.1403 -25.1401
   -19.5274 -19.5274 -19.5216 -19.5216 -19.5207 -19.5207 -19.5192 -19.5192
   -18.2879 -18.2879 -18.2817 -18.2817 -18.2793 -18.2793 -18.2761 -18.2761
   -18.2758 -18.2758 -18.2748 -18.2748  -2.4461  -2.3888  -2.2342  -2.1723
    -0.8755  -0.7888  -0.5828  -0.5317   2.6371   2.6927   2.8752   2.9724
     6.7447   7.0882   7.2570   7.3702   7.7453   7.7722   7.7800   7.7927
     8.0941   8.4292   8.4550   8.5359   8.5588   8.8804   8.8984   8.9355
     8.9570   9.0391   9.2100   9.2210   9.3820   9.8649   9.8692  10.0568
    10.0728  10.1371  10.5011  10.5918  10.6032  10.9525

     occupation numbers 
     1.0000   1.0000   1.0000   1.0000   1.0000   1.0000   1.0000   1.0000
     1.0000   1.0000   1.0000   1.0000   1.0000   1.0000   1.0000   1.0000
     1.0000   1.0000   1.0000   1.0000   1.0000   1.0000   1.0000   1.0000
     1.0000   1.0000   1.0000   1.0000   1.0000   1.0000   1.0000   1.0000
     1.0000   1.0000   1.0000   1.0000   1.0000   1.0000   1.0000   1.0000
     1.0000   1.0000   1.0000   1.0000   1.0000   1.0000   1.0000   1.0000
     1.0000   1.0000   1.0000   1.0000   1.0000   1.0000   1.0000   1.0000
     1.0000   1.0000   1.0000   1.0000   1.0000   1.0000   1.0000   1.0000
     1.0000   1.0000   1.0000   1.0000   1.0000   1.0000   1.0000   1.0000
     1.0000   1.0000   1.0000   1.0000   1.0000   1.0000   1.0000   1.0000
     1.0000   1.0000   1.0000   1.0000   1.0000   1.0000   1.0000   1.0000
     1.0000   1.0000   1.0000   1.0000   1.0000   1.0000   1.0000   1.0000
     1.0000   1.0000   1.0000   1.0000   1.0000   1.0000   1.0000   1.0000
     1.0000   1.0000   1.0000   1.0000   1.0000   1.0000   1.0000   1.0000
     1.0000   1.0000   1.0000   1.0000   1.0000   1.0000   1.0000   1.0000
     1.0000   1.0000   1.0000   1.0000   1.0000   1.0000   1.0000   1.0000
     1.0000   1.0000   1.0000   1.0000   1.0000   1.0000   1.0000   1.0000
     1.0000   1.0000   1.0000   1.0000   1.0000   1.0000   1.0000   1.0000
     1.0000   1.0000   1.0000   1.0000   1.0000   1.0000   1.0000   1.0000
     1.0000   1.0000   1.0000   1.0000   1.0000   0.0000

     highest occupied, lowest unoccupied level (ev):    10.8065   10.8256

!    total energy              =   -3476.96475066 Ry
     estimated scf accuracy    <          5.6E-14 Ry

     The total energy is the sum of the following terms:
     one-electron contribution =   -2530.98231228 Ry
     hartree contribution      =    1207.22521901 Ry
     xc contribution           =    -467.79200495 Ry
     ewald contribution        =   -1685.41565245 Ry

     total magnetization       =     0.00     0.00     4.99 Bohr mag/cell
     absolute magnetization    =     5.01 Bohr mag/cell

     convergence has been achieved in  27 iterations

     Writing all to output data dir /projects/0/prjs0388/Farhan/MST-qe/qe-yambo/out-16-120/MST.save/

     init_run     :    200.68s CPU    204.07s WALL (       1 calls)
     electrons    :  17075.37s CPU  17333.93s WALL (       1 calls)

     Called by init_run:
     wfcinit      :    198.84s CPU    202.03s WALL (       1 calls)
     wfcinit:atom :      0.23s CPU      0.23s WALL (     105 calls)
     wfcinit:wfcr :    197.16s CPU    200.32s WALL (     105 calls)
     potinit      :      0.52s CPU      0.58s WALL (       1 calls)
     hinit0       :      1.23s CPU      1.27s WALL (       1 calls)

     Called by electrons:
     c_bands      :  12891.88s CPU  13083.35s WALL (      27 calls)
     sum_band     :   4170.78s CPU   4236.86s WALL (      27 calls)
     v_of_rho     :      8.78s CPU      9.39s WALL (      28 calls)
     v_h          :      0.09s CPU      0.10s WALL (      28 calls)
     v_xc         :      8.69s CPU      9.29s WALL (      28 calls)
     mix_rho      :      0.59s CPU      0.64s WALL (      27 calls)

     Called by c_bands:
     init_us_2    :      8.87s CPU      9.08s WALL (    5775 calls)
     init_us_2:cp :      8.82s CPU      9.05s WALL (    5775 calls)
     cegterg      :  11571.53s CPU  11751.15s WALL (    2835 calls)

     Called by sum_band:
     sum_band:wei :      0.03s CPU      0.04s WALL (      27 calls)
     sum_band:loo :   4098.40s CPU   4164.06s WALL (      27 calls)
     sum_band:buf :      7.62s CPU      8.51s WALL (    2835 calls)
     sum_band:ini :      4.07s CPU      4.19s WALL (    2835 calls)

     Called by *egterg:
     cdiaghg      :    395.28s CPU    402.92s WALL (   19032 calls)
     cegterg:over :    168.72s CPU    177.35s WALL (   16197 calls)
     cegterg:upda :    117.49s CPU    120.81s WALL (   16197 calls)
     cegterg:last :    157.09s CPU    163.76s WALL (    5545 calls)
     cdiaghg:chol :     24.03s CPU     24.33s WALL (   19032 calls)
     cdiaghg:inve :      5.11s CPU      5.19s WALL (   19032 calls)
     cdiaghg:para :     72.14s CPU     76.23s WALL (   38064 calls)
     h_psi        :  10855.75s CPU  11011.38s WALL (   19137 calls)
     g_psi        :      2.83s CPU      2.88s WALL (   16197 calls)

     Called by h_psi:
     h_psi:calbec :    130.52s CPU    137.49s WALL (   19137 calls)
     vloc_psi     :  10616.83s CPU  10763.95s WALL (   19137 calls)
     add_vuspsi   :     95.60s CPU     96.79s WALL (   19137 calls)

     General routines
     calbec       :    130.40s CPU    137.42s WALL (   19137 calls)
     fft          :      3.28s CPU      3.36s WALL (     694 calls)
     ffts         :      0.90s CPU      0.91s WALL (     108 calls)
     fftw         :   9155.00s CPU   9269.41s WALL ( 5146320 calls)

     Parallel routines

     PWSCF        :      4h48m CPU      4h53m WALL


   This run was terminated on:  19:33:18   5Nov2023            

=------------------------------------------------------------------------------=
   JOB DONE.
=------------------------------------------------------------------------------=
