
     Program PWSCF v.7.1 starts on  9Dec2023 at  0:48:44 

     This program is part of the open-source Quantum ESPRESSO suite
     for quantum simulation of materials; please cite
         "P. Giannozzi et al., J. Phys.:Condens. Matter 21 395502 (2009);
         "P. Giannozzi et al., J. Phys.:Condens. Matter 29 465901 (2017);
         "P. Giannozzi et al., J. Chem. Phys. 152 154105 (2020);
          URL http://www.quantum-espresso.org", 
     in publications or presentations arising from this work. More details at
     http://www.quantum-espresso.org/quote

     Parallel version (MPI & OpenMP), running on     128 processor cores
     Number of MPI processes:                64
     Threads/MPI process:                     2

     MPI processes distributed on     1 nodes
     215550 MiB available memory on the printing compute node when the environment starts

     Reading input from MST_scf.in

     Current dimensions of program PWSCF are:
     Max number of different atomic species (ntypx) = 10
     Max number of k-points (npk) =  40000
     Max angular momentum in pseudopotentials (lmaxx) =  4

     Fixed quantization axis for GGA:     0.000000    0.000000    1.000000
     Message from routine setup:
     the system is metallic, specify occupations
     Message from routine setup:
     using ibrav=0 with symmetry is DISCOURAGED, use correct ibrav instead

     R & G space division:  proc/nbgrp/npool/nimage =      64
     Subspace diagonalization in iterative solution of the eigenvalue problem:
     one sub-group per band group will be used
     scalapack distributed-memory algorithm (size of sub-group:  2*  2 procs)


     Parallelization info
     --------------------
     sticks:   dense  smooth     PW     G-vecs:    dense   smooth      PW
     Min          93      93     27                 2617     2617     410
     Max          94      94     28                 2620     2620     412
     Sum        6005    6005   1749               167593   167593   26281

     Using Slab Decomposition



     bravais-lattice index     =            0
     lattice parameter (alat)  =      26.2798  a.u.
     unit-cell volume          =    1452.5474 (a.u.)^3
     number of atoms/cell      =            7
     number of atomic types    =            3
     number of electrons       =       157.00
     number of Kohn-Sham states=          158
     kinetic-energy cutoff     =      90.0000  Ry
     charge density cutoff     =     360.0000  Ry
     scf convergence threshold =      1.0E-13
     mixing beta               =       0.4000
     number of iterations used =            8  plain     mixing
     Exchange-correlation= PBESOL
                           (   1   4  10   8   0   0   0)
     Noncollinear calculation with spin-orbit


     celldm(1)=  26.279834  celldm(2)=   0.000000  celldm(3)=   0.000000
     celldm(4)=   0.000000  celldm(5)=   0.000000  celldm(6)=   0.000000

     crystal axes: (cart. coord. in units of alat)
               a(1) = (   0.153210   0.088456   0.984227 )  
               a(2) = (  -0.153210   0.088456   0.984227 )  
               a(3) = (   0.000000  -0.176912   0.984227 )  

     reciprocal axes: (cart. coord. in units 2 pi/alat)
               b(1) = (  3.263485  1.884174  0.338675 )  
               b(2) = ( -3.263485  1.884174  0.338675 )  
               b(3) = (  0.000000 -3.768348  0.338675 )  


     PseudoPot. # 1 for Mn read from file:
     /gpfs/work4/0/prjs0822/MST/pseudo/Mn.upf
     MD5 check sum: 9b50e869e35b4674015a8a9b1d40c02b
     Pseudo is Norm-conserving + core correction, Zval = 15.0
     Generated using ONCVPSP code by D. R. Hamann
     Using radial grid of 1448 points, 10 beta functions with: 
                l(1) =   0
                l(2) =   0
                l(3) =   1
                l(4) =   1
                l(5) =   1
                l(6) =   1
                l(7) =   2
                l(8) =   2
                l(9) =   2
               l(10) =   2

     PseudoPot. # 2 for Sb read from file:
     /gpfs/work4/0/prjs0822/MST/pseudo/Sb.upf
     MD5 check sum: d7e4a923c9e5eb416dd6a712e5c7b634
     Pseudo is Norm-conserving + core correction, Zval = 23.0
     Generated using ONCVPSP code by D. R. Hamann
     Using radial grid of 1452 points, 10 beta functions with: 
                l(1) =   0
                l(2) =   0
                l(3) =   1
                l(4) =   1
                l(5) =   1
                l(6) =   1
                l(7) =   2
                l(8) =   2
                l(9) =   2
               l(10) =   2

     PseudoPot. # 3 for Te read from file:
     /gpfs/work4/0/prjs0822/MST/pseudo/Te.upf
     MD5 check sum: 79d0c337239bdfc348e5dd475cdca76d
     Pseudo is Norm-conserving + core correction, Zval = 24.0
     Generated using ONCVPSP code by D. R. Hamann
     Using radial grid of 1310 points, 10 beta functions with: 
                l(1) =   0
                l(2) =   0
                l(3) =   1
                l(4) =   1
                l(5) =   1
                l(6) =   1
                l(7) =   2
                l(8) =   2
                l(9) =   2
               l(10) =   2

     atomic species   valence    mass     pseudopotential
        Mn            15.00     1.00000     Mn( 1.00)
        Sb            23.00     1.00000     Sb( 1.00)
        Te            24.00     1.00000     Te( 1.00)

     12 Sym. Ops., with inversion, found



   Cartesian axes

     site n.     atom                  positions (alat units)
         1           Mn  tau(   1) = (   0.0000000   0.0000000   0.0000000  )
         2           Sb  tau(   2) = (  -0.0000000   0.1769122   0.7132986  )
         3           Sb  tau(   3) = (  -0.0000000   0.1769122   0.2709281  )
         4           Te  tau(   4) = (   0.1532104   0.0884561   0.1214536  )
         5           Te  tau(   5) = (   0.0000000   0.0000000   0.8627731  )
         6           Te  tau(   6) = (   0.1532104   0.0884561   0.5963626  )
         7           Te  tau(   7) = (  -0.0000000   0.0000000   0.3878640  )

     number of k points=    32
                       cart. coord. in units 2pi/alat
        k(    1) = (   0.0000000   0.0000000   0.0000000), wk =   0.0046296
        k(    2) = (   0.0000000  -0.6280580   0.0564459), wk =   0.0277778
        k(    3) = (   0.0000000  -1.2561160   0.1128918), wk =   0.0277778
        k(    4) = (  -0.0000000   1.8841740  -0.1693377), wk =   0.0138889
        k(    5) = (  -0.5439142  -0.3140290   0.1128918), wk =   0.0277778
        k(    6) = (  -0.5439142  -0.9420870   0.1693377), wk =   0.0555556
        k(    7) = (  -0.5439142   2.1982030  -0.1128918), wk =   0.0555556
        k(    8) = (  -0.5439142   1.5701450  -0.0564459), wk =   0.0555556
        k(    9) = (  -0.5439142   0.9420870   0.0000000), wk =   0.0277778
        k(   10) = (  -1.0878284  -0.6280580   0.2257836), wk =   0.0277778
        k(   11) = (  -1.0878284   2.5122320  -0.0564459), wk =   0.0555556
        k(   12) = (  -1.0878284   1.8841740  -0.0000000), wk =   0.0277778
        k(   13) = (   1.6317426   0.9420870  -0.3386754), wk =   0.0138889
        k(   14) = (   0.0000000   0.0000000   0.1693377), wk =   0.0092593
        k(   15) = (   0.0000000  -0.6280580   0.2257836), wk =   0.0277778
        k(   16) = (  -0.0000000   2.5122320  -0.0564459), wk =   0.0277778
        k(   17) = (  -0.0000000   1.8841740  -0.0000000), wk =   0.0277778
        k(   18) = (  -0.0000000   1.2561160   0.0564459), wk =   0.0277778
        k(   19) = (  -0.5439142  -0.3140290   0.2822295), wk =   0.0277778
        k(   20) = (  -0.5439142   2.8262610   0.0000000), wk =   0.0555556
        k(   21) = (  -0.5439142   2.1982030   0.0564459), wk =   0.0555556
        k(   22) = (  -0.5439142   1.5701450   0.1128918), wk =   0.0555556
        k(   23) = (   2.1756568   1.2561160  -0.2822295), wk =   0.0277778
        k(   24) = (   2.1756568   0.6280580  -0.2257836), wk =   0.0555556
        k(   25) = (   2.1756568  -0.0000000  -0.1693377), wk =   0.0277778
        k(   26) = (   1.6317426   0.9420870  -0.1693377), wk =   0.0277778
        k(   27) = (   0.0000000   0.0000000   0.3386754), wk =   0.0092593
        k(   28) = (  -0.0000000   3.1402900   0.0564459), wk =   0.0277778
        k(   29) = (  -0.0000000   2.5122320   0.1128918), wk =   0.0277778
        k(   30) = (   2.7195709   1.5701450  -0.2257836), wk =   0.0277778
        k(   31) = (   2.7195709   0.9420870  -0.1693377), wk =   0.0277778
        k(   32) = (  -0.0000000   0.0000000  -0.5080131), wk =   0.0046296

     Dense  grid:   167593 G-vectors     FFT dimensions: ( 160, 160, 160)

     Estimated max dynamical RAM per process >      91.49 MB

     Estimated total dynamical RAM >       5.72 GB
     Generating pointlists ...
     new r_m :   0.0885 (alat units)  2.3262 (a.u.) for type    1
     new r_m :   0.0875 (alat units)  2.2989 (a.u.) for type    2
     new r_m :   0.0875 (alat units)  2.2989 (a.u.) for type    3

     Initial potential from superposition of free atoms

     starting charge     156.9976, renormalised to     157.0000

 ==============================================================================
     atom number    1 relative position :    0.0000   0.0000   0.0000
     charge :    13.714812  (integrated on a sphere of radius 0.089)
     magnetization :          0.000000    0.000000   13.452196
     magnetization/charge:    0.000000    0.000000    0.980852
     polar coord.: r, theta, phi [deg] :    13.452196    0.000000  360.000000

 ==============================================================================

 ==============================================================================
     atom number    2 relative position :   -0.0000   0.1769   0.7133
     charge :    20.788418  (integrated on a sphere of radius 0.087)
     magnetization :          0.000000    0.000000    0.001972
     magnetization/charge:    0.000000    0.000000    0.000095
     polar coord.: r, theta, phi [deg] :     0.001972    0.000000  360.000000

 ==============================================================================

 ==============================================================================
     atom number    3 relative position :   -0.0000   0.1769   0.2709
     charge :    20.788418  (integrated on a sphere of radius 0.087)
     magnetization :          0.000000    0.000000    0.001972
     magnetization/charge:    0.000000    0.000000    0.000095
     polar coord.: r, theta, phi [deg] :     0.001972    0.000000  360.000000

 ==============================================================================

 ==============================================================================
     atom number    4 relative position :    0.1532   0.0885   0.1215
     charge :    21.690257  (integrated on a sphere of radius 0.087)
     magnetization :          0.000000    0.000000    0.098745
     magnetization/charge:    0.000000    0.000000    0.004553
     polar coord.: r, theta, phi [deg] :     0.098745    0.000000  360.000000

 ==============================================================================

 ==============================================================================
     atom number    5 relative position :    0.0000   0.0000   0.8628
     charge :    21.690257  (integrated on a sphere of radius 0.087)
     magnetization :          0.000000    0.000000    0.098745
     magnetization/charge:    0.000000    0.000000    0.004553
     polar coord.: r, theta, phi [deg] :     0.098745    0.000000  360.000000

 ==============================================================================

 ==============================================================================
     atom number    6 relative position :    0.1532   0.0885   0.5964
     charge :    21.675264  (integrated on a sphere of radius 0.087)
     magnetization :          0.000000    0.000000    0.000057
     magnetization/charge:    0.000000    0.000000    0.000003
     polar coord.: r, theta, phi [deg] :     0.000057    0.000000  360.000000

 ==============================================================================

 ==============================================================================
     atom number    7 relative position :   -0.0000   0.0000   0.3879
     charge :    21.675264  (integrated on a sphere of radius 0.087)
     magnetization :          0.000000    0.000000    0.000057
     magnetization/charge:    0.000000    0.000000    0.000003
     polar coord.: r, theta, phi [deg] :     0.000057    0.000000  360.000000

 ==============================================================================
     Starting wfcs are  176 randomized atomic wfcs

     total cpu time spent up to now is       51.8 secs

     Self-consistent Calculation

     iteration #  1     ecut=    90.00 Ry     beta= 0.40
     Davidson diagonalization with overlap
     ethr =  1.00E-02,  avg # of iterations =  2.0

     total cpu time spent up to now is      136.7 secs

     total energy              =   -3476.12703125 Ry
     estimated scf accuracy    <       2.64953016 Ry

     total magnetization       =    -0.00     0.00     5.01 Bohr mag/cell
     absolute magnetization    =     5.57 Bohr mag/cell

     iteration #  2     ecut=    90.00 Ry     beta= 0.40
     Davidson diagonalization with overlap
     ethr =  1.69E-03,  avg # of iterations =  3.2

     total cpu time spent up to now is      204.8 secs

     total energy              =   -3476.69914616 Ry
     estimated scf accuracy    <       1.06380103 Ry

     total magnetization       =    -0.00    -0.00     5.01 Bohr mag/cell
     absolute magnetization    =     5.46 Bohr mag/cell

     iteration #  3     ecut=    90.00 Ry     beta= 0.40
     Davidson diagonalization with overlap
     ethr =  6.78E-04,  avg # of iterations = 10.3

     total cpu time spent up to now is      308.5 secs

     total energy              =   -3476.06976541 Ry
     estimated scf accuracy    <      11.20191564 Ry

     total magnetization       =     0.00    -0.00     3.18 Bohr mag/cell
     absolute magnetization    =     3.37 Bohr mag/cell

     iteration #  4     ecut=    90.00 Ry     beta= 0.40
     Davidson diagonalization with overlap
     ethr =  6.78E-04,  avg # of iterations =  7.7

     total cpu time spent up to now is      410.2 secs

     total energy              =   -3476.89231180 Ry
     estimated scf accuracy    <       0.37938952 Ry

     total magnetization       =     0.00     0.00     4.98 Bohr mag/cell
     absolute magnetization    =     5.18 Bohr mag/cell

     iteration #  5     ecut=    90.00 Ry     beta= 0.40
     Davidson diagonalization with overlap
     ethr =  2.42E-04,  avg # of iterations =  6.4

     total cpu time spent up to now is      461.0 secs

     total energy              =   -3476.89357209 Ry
     estimated scf accuracy    <       0.09596872 Ry

     total magnetization       =     0.00     0.00     4.98 Bohr mag/cell
     absolute magnetization    =     5.11 Bohr mag/cell

     iteration #  6     ecut=    90.00 Ry     beta= 0.40
     Davidson diagonalization with overlap
     c_bands:  1 eigenvalues not converged
     c_bands:  1 eigenvalues not converged
     c_bands:  1 eigenvalues not converged
     c_bands:  1 eigenvalues not converged
     c_bands:  1 eigenvalues not converged
     c_bands:  1 eigenvalues not converged
     c_bands:  1 eigenvalues not converged
     c_bands:  1 eigenvalues not converged
     ethr =  6.11E-05,  avg # of iterations = 12.5

     total cpu time spent up to now is      524.0 secs

     total energy              =   -3476.90544721 Ry
     estimated scf accuracy    <       0.00619762 Ry

     total magnetization       =     0.00    -0.00     4.99 Bohr mag/cell
     absolute magnetization    =     5.01 Bohr mag/cell

     iteration #  7     ecut=    90.00 Ry     beta= 0.40
     Davidson diagonalization with overlap
     c_bands:  1 eigenvalues not converged
     c_bands:  1 eigenvalues not converged
     c_bands:  1 eigenvalues not converged
     c_bands:  1 eigenvalues not converged
     c_bands:  1 eigenvalues not converged
     c_bands:  1 eigenvalues not converged
     ethr =  3.95E-06,  avg # of iterations = 14.8

     total cpu time spent up to now is      594.2 secs

     total energy              =   -3476.90605891 Ry
     estimated scf accuracy    <       0.00157770 Ry

     total magnetization       =     0.00     0.00     4.99 Bohr mag/cell
     absolute magnetization    =     5.01 Bohr mag/cell

     iteration #  8     ecut=    90.00 Ry     beta= 0.40
     Davidson diagonalization with overlap
     c_bands:  1 eigenvalues not converged
     c_bands:  1 eigenvalues not converged
     c_bands:  1 eigenvalues not converged
     c_bands:  1 eigenvalues not converged
     c_bands:  1 eigenvalues not converged
     c_bands:  1 eigenvalues not converged
     c_bands:  1 eigenvalues not converged
     c_bands:  1 eigenvalues not converged
     c_bands:  1 eigenvalues not converged
     c_bands:  1 eigenvalues not converged
     c_bands:  1 eigenvalues not converged
     ethr =  1.00E-06,  avg # of iterations = 14.2

     total cpu time spent up to now is      663.4 secs

     total energy              =   -3476.90633186 Ry
     estimated scf accuracy    <       0.00028712 Ry

     total magnetization       =     0.00     0.00     4.99 Bohr mag/cell
     absolute magnetization    =     5.02 Bohr mag/cell

     iteration #  9     ecut=    90.00 Ry     beta= 0.40
     Davidson diagonalization with overlap
     c_bands:  1 eigenvalues not converged
     c_bands:  1 eigenvalues not converged
     c_bands:  1 eigenvalues not converged
     c_bands:  1 eigenvalues not converged
     c_bands:  1 eigenvalues not converged
     c_bands:  1 eigenvalues not converged
     c_bands:  1 eigenvalues not converged
     c_bands:  1 eigenvalues not converged
     c_bands:  1 eigenvalues not converged
     c_bands:  1 eigenvalues not converged
     c_bands:  1 eigenvalues not converged
     ethr =  1.83E-07,  avg # of iterations = 14.4

     total cpu time spent up to now is      736.0 secs

     total energy              =   -3476.90635135 Ry
     estimated scf accuracy    <       0.00028884 Ry

     total magnetization       =     0.00    -0.00     4.99 Bohr mag/cell
     absolute magnetization    =     5.02 Bohr mag/cell

     iteration # 10     ecut=    90.00 Ry     beta= 0.40
     Davidson diagonalization with overlap
     c_bands:  1 eigenvalues not converged
     c_bands:  1 eigenvalues not converged
     c_bands:  1 eigenvalues not converged
     c_bands:  1 eigenvalues not converged
     c_bands:  1 eigenvalues not converged
     c_bands:  1 eigenvalues not converged
     c_bands:  1 eigenvalues not converged
     c_bands:  1 eigenvalues not converged
     c_bands:  1 eigenvalues not converged
     ethr =  1.83E-07,  avg # of iterations = 12.3

     total cpu time spent up to now is      798.3 secs

     total energy              =   -3476.90636889 Ry
     estimated scf accuracy    <       0.00005295 Ry

     total magnetization       =     0.00     0.00     4.99 Bohr mag/cell
     absolute magnetization    =     5.02 Bohr mag/cell

     iteration # 11     ecut=    90.00 Ry     beta= 0.40
     Davidson diagonalization with overlap
     c_bands:  1 eigenvalues not converged
     c_bands:  1 eigenvalues not converged
     c_bands:  1 eigenvalues not converged
     c_bands:  1 eigenvalues not converged
     c_bands:  1 eigenvalues not converged
     c_bands:  1 eigenvalues not converged
     c_bands:  1 eigenvalues not converged
     c_bands:  1 eigenvalues not converged
     ethr =  3.37E-08,  avg # of iterations = 14.4

     total cpu time spent up to now is      863.1 secs

     total energy              =   -3476.90637738 Ry
     estimated scf accuracy    <       0.00003317 Ry

     total magnetization       =     0.00     0.00     4.99 Bohr mag/cell
     absolute magnetization    =     5.02 Bohr mag/cell

     iteration # 12     ecut=    90.00 Ry     beta= 0.40
     Davidson diagonalization with overlap
     c_bands:  1 eigenvalues not converged
     c_bands:  1 eigenvalues not converged
     c_bands:  1 eigenvalues not converged
     c_bands:  1 eigenvalues not converged
     c_bands:  1 eigenvalues not converged
     c_bands:  1 eigenvalues not converged
     c_bands:  1 eigenvalues not converged
     c_bands:  1 eigenvalues not converged
     c_bands:  1 eigenvalues not converged
     c_bands:  1 eigenvalues not converged
     c_bands:  1 eigenvalues not converged
     c_bands:  1 eigenvalues not converged
     ethr =  2.11E-08,  avg # of iterations = 14.6

     total cpu time spent up to now is      930.5 secs

     total energy              =   -3476.90638115 Ry
     estimated scf accuracy    <       0.00000206 Ry

     total magnetization       =     0.00     0.00     4.99 Bohr mag/cell
     absolute magnetization    =     5.02 Bohr mag/cell

     iteration # 13     ecut=    90.00 Ry     beta= 0.40
     Davidson diagonalization with overlap
     c_bands:  1 eigenvalues not converged
     c_bands:  1 eigenvalues not converged
     c_bands:  1 eigenvalues not converged
     c_bands:  1 eigenvalues not converged
     c_bands:  1 eigenvalues not converged
     c_bands:  1 eigenvalues not converged
     c_bands:  1 eigenvalues not converged
     c_bands:  1 eigenvalues not converged
     c_bands:  1 eigenvalues not converged
     c_bands:  1 eigenvalues not converged
     c_bands:  1 eigenvalues not converged
     c_bands:  1 eigenvalues not converged
     c_bands:  1 eigenvalues not converged
     ethr =  1.31E-09,  avg # of iterations = 15.3

     total cpu time spent up to now is     1008.7 secs

     total energy              =   -3476.90638158 Ry
     estimated scf accuracy    <       0.00000006 Ry

     total magnetization       =    -0.00     0.00     4.99 Bohr mag/cell
     absolute magnetization    =     5.02 Bohr mag/cell

     iteration # 14     ecut=    90.00 Ry     beta= 0.40
     Davidson diagonalization with overlap
     c_bands:  1 eigenvalues not converged
     ethr =  4.09E-11,  avg # of iterations = 10.3

     total cpu time spent up to now is     1085.4 secs

     total energy              =   -3476.90638161 Ry
     estimated scf accuracy    <       0.00000013 Ry

     total magnetization       =    -0.00    -0.00     4.99 Bohr mag/cell
     absolute magnetization    =     5.02 Bohr mag/cell

     iteration # 15     ecut=    90.00 Ry     beta= 0.40
     Davidson diagonalization with overlap
     c_bands:  1 eigenvalues not converged
     c_bands:  1 eigenvalues not converged
     c_bands:  1 eigenvalues not converged
     c_bands:  1 eigenvalues not converged
     c_bands:  1 eigenvalues not converged
     c_bands:  1 eigenvalues not converged
     c_bands:  1 eigenvalues not converged
     c_bands:  1 eigenvalues not converged
     c_bands:  1 eigenvalues not converged
     c_bands:  1 eigenvalues not converged
     ethr =  4.09E-11,  avg # of iterations = 14.0

     total cpu time spent up to now is     1156.7 secs

     total energy              =   -3476.90638163 Ry
     estimated scf accuracy    <       0.00000002 Ry

     total magnetization       =     0.00    -0.00     4.99 Bohr mag/cell
     absolute magnetization    =     5.02 Bohr mag/cell

     iteration # 16     ecut=    90.00 Ry     beta= 0.40
     Davidson diagonalization with overlap
     c_bands:  1 eigenvalues not converged
     c_bands:  1 eigenvalues not converged
     c_bands:  1 eigenvalues not converged
     c_bands:  1 eigenvalues not converged
     c_bands:  1 eigenvalues not converged
     c_bands:  1 eigenvalues not converged
     c_bands:  1 eigenvalues not converged
     ethr =  1.36E-11,  avg # of iterations = 13.1

     total cpu time spent up to now is     1275.9 secs

     total energy              =   -3476.90638164 Ry
     estimated scf accuracy    <          6.1E-10 Ry

     total magnetization       =     0.00    -0.00     4.99 Bohr mag/cell
     absolute magnetization    =     5.02 Bohr mag/cell

     iteration # 17     ecut=    90.00 Ry     beta= 0.40
     Davidson diagonalization with overlap
     ethr =  3.90E-13,  avg # of iterations = 10.2

     total cpu time spent up to now is     1371.7 secs

     total energy              =   -3476.90638164 Ry
     estimated scf accuracy    <          1.3E-09 Ry

     total magnetization       =     0.00    -0.00     4.99 Bohr mag/cell
     absolute magnetization    =     5.02 Bohr mag/cell

     iteration # 18     ecut=    90.00 Ry     beta= 0.40
     Davidson diagonalization with overlap
     c_bands:  1 eigenvalues not converged
     c_bands:  1 eigenvalues not converged
     c_bands:  1 eigenvalues not converged
     c_bands:  1 eigenvalues not converged
     c_bands:  1 eigenvalues not converged
     c_bands:  1 eigenvalues not converged
     c_bands:  1 eigenvalues not converged
     c_bands:  1 eigenvalues not converged
     c_bands:  1 eigenvalues not converged
     c_bands:  1 eigenvalues not converged
     c_bands:  1 eigenvalues not converged
     ethr =  3.90E-13,  avg # of iterations = 13.2

     total cpu time spent up to now is     1447.0 secs

     total energy              =   -3476.90638164 Ry
     estimated scf accuracy    <          6.8E-11 Ry

     total magnetization       =    -0.00     0.00     4.99 Bohr mag/cell
     absolute magnetization    =     5.02 Bohr mag/cell

     iteration # 19     ecut=    90.00 Ry     beta= 0.40
     Davidson diagonalization with overlap
     c_bands:  1 eigenvalues not converged
     c_bands:  1 eigenvalues not converged
     c_bands:  1 eigenvalues not converged
     c_bands:  1 eigenvalues not converged
     c_bands:  1 eigenvalues not converged
     c_bands:  1 eigenvalues not converged
     c_bands:  1 eigenvalues not converged
     c_bands:  1 eigenvalues not converged
     c_bands:  1 eigenvalues not converged
     c_bands:  1 eigenvalues not converged
     c_bands:  1 eigenvalues not converged
     c_bands:  1 eigenvalues not converged
     c_bands:  1 eigenvalues not converged
     ethr =  1.00E-13,  avg # of iterations = 14.1

     total cpu time spent up to now is     1523.0 secs

     total energy              =   -3476.90638164 Ry
     estimated scf accuracy    <          1.2E-12 Ry

     total magnetization       =     0.00     0.00     4.99 Bohr mag/cell
     absolute magnetization    =     5.02 Bohr mag/cell

     iteration # 20     ecut=    90.00 Ry     beta= 0.40
     Davidson diagonalization with overlap
     c_bands:  1 eigenvalues not converged
     c_bands:  1 eigenvalues not converged
     ethr =  1.00E-13,  avg # of iterations =  3.9

     total cpu time spent up to now is     1570.0 secs

     total energy              =   -3476.90638164 Ry
     estimated scf accuracy    <          1.2E-12 Ry

     total magnetization       =    -0.00     0.00     4.99 Bohr mag/cell
     absolute magnetization    =     5.02 Bohr mag/cell

     iteration # 21     ecut=    90.00 Ry     beta= 0.40
     Davidson diagonalization with overlap
     ethr =  1.00E-13,  avg # of iterations =  1.1

     total cpu time spent up to now is     1618.9 secs

     total energy              =   -3476.90638164 Ry
     estimated scf accuracy    <          4.5E-13 Ry

     total magnetization       =     0.00     0.00     4.99 Bohr mag/cell
     absolute magnetization    =     5.02 Bohr mag/cell

     iteration # 22     ecut=    90.00 Ry     beta= 0.40
     Davidson diagonalization with overlap
     ethr =  1.00E-13,  avg # of iterations =  1.0

     total cpu time spent up to now is     1672.0 secs

     total energy              =   -3476.90638164 Ry
     estimated scf accuracy    <          2.3E-13 Ry

     total magnetization       =    -0.00    -0.00     4.99 Bohr mag/cell
     absolute magnetization    =     5.02 Bohr mag/cell

     iteration # 23     ecut=    90.00 Ry     beta= 0.40
     Davidson diagonalization with overlap
     ethr =  1.00E-13,  avg # of iterations =  1.0

 ==============================================================================
     atom number    1 relative position :    0.0000   0.0000   0.0000
     charge :    13.675959  (integrated on a sphere of radius 0.089)
     magnetization :         -0.000000   -0.000000    4.332725
     magnetization/charge:   -0.000000   -0.000000    0.316813
     polar coord.: r, theta, phi [deg] :     4.332725    0.000000  360.000000

 ==============================================================================

 ==============================================================================
     atom number    2 relative position :   -0.0000   0.1769   0.7133
     charge :    20.679623  (integrated on a sphere of radius 0.087)
     magnetization :          0.000000    0.000000    0.043422
     magnetization/charge:    0.000000    0.000000    0.002100
     polar coord.: r, theta, phi [deg] :     0.043422    0.000000  360.000000

 ==============================================================================

 ==============================================================================
     atom number    3 relative position :   -0.0000   0.1769   0.2709
     charge :    20.679623  (integrated on a sphere of radius 0.087)
     magnetization :          0.000000    0.000000    0.043422
     magnetization/charge:    0.000000    0.000000    0.002100
     polar coord.: r, theta, phi [deg] :     0.043422    0.000000  360.000000

 ==============================================================================

 ==============================================================================
     atom number    4 relative position :    0.1532   0.0885   0.1215
     charge :    21.729220  (integrated on a sphere of radius 0.087)
     magnetization :         -0.000000    0.000000    0.024001
     magnetization/charge:   -0.000000    0.000000    0.001105
     polar coord.: r, theta, phi [deg] :     0.024001    0.000000  360.000000

 ==============================================================================

 ==============================================================================
     atom number    5 relative position :    0.0000   0.0000   0.8628
     charge :    21.729220  (integrated on a sphere of radius 0.087)
     magnetization :         -0.000000    0.000000    0.024001
     magnetization/charge:   -0.000000    0.000000    0.001105
     polar coord.: r, theta, phi [deg] :     0.024001    0.000000  360.000000

 ==============================================================================

 ==============================================================================
     atom number    6 relative position :    0.1532   0.0885   0.5964
     charge :    21.706273  (integrated on a sphere of radius 0.087)
     magnetization :         -0.000000    0.000000    0.053418
     magnetization/charge:   -0.000000    0.000000    0.002461
     polar coord.: r, theta, phi [deg] :     0.053418    0.000000  360.000000

 ==============================================================================

 ==============================================================================
     atom number    7 relative position :   -0.0000   0.0000   0.3879
     charge :    21.706273  (integrated on a sphere of radius 0.087)
     magnetization :         -0.000000    0.000000    0.053418
     magnetization/charge:   -0.000000    0.000000    0.002461
     polar coord.: r, theta, phi [deg] :     0.053418    0.000000  360.000000

 ==============================================================================

     total cpu time spent up to now is     1724.3 secs

     End of self-consistent calculation

          k = 0.0000 0.0000 0.0000 ( 20899 PWs)   bands (ev):

  -148.6902-148.6902-148.6849-148.6849-148.1742-148.1742-148.1702-148.1702
  -133.8346-133.8346-133.8301-133.8301-105.5911-105.5911-105.5886-105.5886
  -105.0742-105.0742-105.0724-105.0724 -95.8584 -95.8584 -95.8518 -95.8518
   -95.8469 -95.8468 -95.8458 -95.8458 -95.3437 -95.3437 -95.3427 -95.3427
   -95.3261 -95.3260 -95.3213 -95.3212 -92.8657 -92.8657 -92.8636 -92.8636
   -84.2534 -84.2534 -84.2504 -84.2504 -84.2488 -84.2488 -84.2478 -84.2478
   -70.9013 -66.4281 -40.2867 -39.8560 -39.3706 -35.7341 -35.3065 -34.9778
   -27.1473 -27.1465 -27.1401 -27.1394 -27.1335 -27.1318 -27.1314 -27.1297
   -26.6293 -26.6287 -26.6277 -26.6271 -26.6069 -26.6069 -26.6026 -26.6025
   -25.6850 -25.6847 -25.6736 -25.6735 -25.6728 -25.6706 -25.6679 -25.6651
   -25.6636 -25.6631 -25.6624 -25.6615 -25.1628 -25.1622 -25.1620 -25.1614
   -25.1555 -25.1547 -25.1518 -25.1510 -25.1353 -25.1353 -25.1280 -25.1280
   -19.5355 -19.5354 -19.5298 -19.5297 -19.5286 -19.5285 -19.5275 -19.5273
   -18.2960 -18.2960 -18.2898 -18.2897 -18.2872 -18.2871 -18.2843 -18.2842
   -18.2841 -18.2840 -18.2831 -18.2830  -2.4798  -2.4197  -2.1843  -2.1276
    -1.0343  -0.9453  -0.4031  -0.3525   2.2975   2.3900   3.2391   3.2953
     6.4774   6.8383   7.2434   7.2673   7.7871   7.7994   7.8957   8.2273
     8.2801   8.3169   8.3470   8.6581   8.8610   8.8752   8.8898   9.0097
     9.0278   9.0451   9.0511   9.0657   9.3026   9.6072   9.6573  10.0427
    10.1360  10.2187  10.4907  10.7743  10.7907  10.8338

          k = 0.0000-0.6281 0.0564 ( 20916 PWs)   bands (ev):

  -148.6902-148.6902-148.6849-148.6849-148.1742-148.1742-148.1702-148.1702
  -133.8346-133.8346-133.8301-133.8301-105.5911-105.5911-105.5886-105.5886
  -105.0742-105.0742-105.0724-105.0724 -95.8584 -95.8584 -95.8518 -95.8518
   -95.8469 -95.8468 -95.8458 -95.8458 -95.3437 -95.3437 -95.3427 -95.3427
   -95.3261 -95.3261 -95.3213 -95.3213 -92.8657 -92.8657 -92.8636 -92.8636
   -84.2534 -84.2534 -84.2504 -84.2504 -84.2488 -84.2488 -84.2478 -84.2478
   -70.9015 -66.4283 -40.2868 -39.8559 -39.3707 -35.7343 -35.3064 -34.9779
   -27.1471 -27.1466 -27.1400 -27.1394 -27.1333 -27.1318 -27.1312 -27.1298
   -26.6292 -26.6287 -26.6276 -26.6271 -26.6069 -26.6068 -26.6026 -26.6025
   -25.6848 -25.6846 -25.6734 -25.6733 -25.6728 -25.6709 -25.6677 -25.6654
   -25.6634 -25.6630 -25.6621 -25.6614 -25.1626 -25.1622 -25.1618 -25.1614
   -25.1554 -25.1548 -25.1517 -25.1511 -25.1352 -25.1352 -25.1279 -25.1279
   -19.5353 -19.5353 -19.5299 -19.5298 -19.5284 -19.5284 -19.5275 -19.5274
   -18.2956 -18.2956 -18.2902 -18.2901 -18.2870 -18.2870 -18.2842 -18.2841
   -18.2836 -18.2835 -18.2832 -18.2832  -2.2325  -2.1728  -1.9444  -1.8877
    -0.8543  -0.7710  -0.2919  -0.2399   2.2703   2.3515   2.9048   2.9652
     6.3956   6.6801   6.9020   7.0122   7.0497   7.2590   7.4731   7.5105
     7.7030   7.7966   7.9244   7.9463   8.0495   8.1840   8.2553   8.2934
     8.3743   8.6597   9.0004   9.1305   9.2953   9.3850   9.6759   9.7478
     9.8616   9.9719  10.1241  10.3599  10.7606  11.4140

          k = 0.0000-1.2561 0.1129 ( 20974 PWs)   bands (ev):

  -148.6902-148.6902-148.6849-148.6849-148.1742-148.1742-148.1702-148.1702
  -133.8347-133.8347-133.8301-133.8301-105.5911-105.5911-105.5886-105.5886
  -105.0742-105.0742-105.0724-105.0724 -95.8584 -95.8584 -95.8518 -95.8518
   -95.8469 -95.8468 -95.8458 -95.8458 -95.3437 -95.3437 -95.3427 -95.3427
   -95.3261 -95.3261 -95.3213 -95.3213 -92.8658 -92.8658 -92.8636 -92.8636
   -84.2534 -84.2534 -84.2504 -84.2504 -84.2488 -84.2488 -84.2478 -84.2478
   -70.9021 -66.4289 -40.2870 -39.8559 -39.3710 -35.7345 -35.3064 -34.9782
   -27.1469 -27.1465 -27.1397 -27.1394 -27.1330 -27.1320 -27.1309 -27.1300
   -26.6291 -26.6288 -26.6275 -26.6272 -26.6068 -26.6067 -26.6025 -26.6024
   -25.6844 -25.6843 -25.6731 -25.6728 -25.6726 -25.6713 -25.6674 -25.6659
   -25.6630 -25.6628 -25.6617 -25.6612 -25.1624 -25.1621 -25.1616 -25.1613
   -25.1554 -25.1550 -25.1517 -25.1513 -25.1349 -25.1349 -25.1276 -25.1276
   -19.5350 -19.5349 -19.5300 -19.5300 -19.5283 -19.5283 -19.5274 -19.5273
   -18.2949 -18.2949 -18.2910 -18.2910 -18.2868 -18.2867 -18.2841 -18.2841
   -18.2838 -18.2838 -18.2820 -18.2819  -1.5489  -1.4905  -1.2922  -1.2358
    -0.4454  -0.3777  -0.0954  -0.0398   1.8311   1.8913   2.0019   2.0660
     5.6879   5.7989   5.9610   6.0834   6.2196   6.5413   7.1077   7.1595
     7.2312   7.4186   7.5039   7.6418   7.6693   7.7104   7.7955   7.8492
     7.8804   8.2873   8.3441   8.5167   8.6754   8.8847   9.0849   9.1690
     9.2187   9.5479   9.8642   9.9159  10.1378  11.2727

          k =-0.0000 1.8842-0.1693 ( 20990 PWs)   bands (ev):

  -148.6902-148.6902-148.6849-148.6849-148.1742-148.1742-148.1703-148.1702
  -133.8347-133.8347-133.8301-133.8301-105.5911-105.5911-105.5886-105.5886
  -105.0742-105.0742-105.0724-105.0724 -95.8584 -95.8584 -95.8518 -95.8518
   -95.8469 -95.8469 -95.8458 -95.8458 -95.3437 -95.3437 -95.3427 -95.3427
   -95.3261 -95.3261 -95.3213 -95.3213 -92.8658 -92.8658 -92.8636 -92.8636
   -84.2534 -84.2534 -84.2504 -84.2504 -84.2488 -84.2488 -84.2478 -84.2478
   -70.9022 -66.4291 -40.2871 -39.8559 -39.3711 -35.7347 -35.3064 -34.9784
   -27.1467 -27.1464 -27.1396 -27.1393 -27.1328 -27.1322 -27.1307 -27.1301
   -26.6291 -26.6288 -26.6274 -26.6272 -26.6066 -26.6066 -26.6023 -26.6023
   -25.6842 -25.6841 -25.6728 -25.6727 -25.6726 -25.6714 -25.6672 -25.6662
   -25.6629 -25.6627 -25.6615 -25.6611 -25.1622 -25.1620 -25.1615 -25.1612
   -25.1554 -25.1552 -25.1516 -25.1514 -25.1346 -25.1346 -25.1274 -25.1274
   -19.5347 -19.5347 -19.5301 -19.5301 -19.5283 -19.5283 -19.5272 -19.5272
   -18.2947 -18.2946 -18.2914 -18.2914 -18.2867 -18.2867 -18.2842 -18.2841
   -18.2838 -18.2838 -18.2812 -18.2811  -0.8871  -0.8302  -0.7483  -0.6922
    -0.2567  -0.2078  -0.1655  -0.1007   1.2676   1.3324   1.4276   1.4837
     5.2709   5.3535   5.4727   5.7082   6.2873   6.5220   7.0053   7.1183
     7.1597   7.1717   7.3967   7.4477   7.4678   7.6247   7.6468   7.6845
     7.7328   7.8558   7.9053   8.0203   8.1305   8.8409   8.9382   9.0151
     9.0461   9.6527   9.7375   9.9377  10.0721  11.1789

          k =-0.5439-0.3140 0.1129 ( 20925 PWs)   bands (ev):

  -148.6902-148.6902-148.6849-148.6849-148.1742-148.1742-148.1702-148.1702
  -133.8347-133.8346-133.8301-133.8301-105.5911-105.5911-105.5886-105.5886
  -105.0742-105.0742-105.0724-105.0724 -95.8584 -95.8584 -95.8518 -95.8518
   -95.8469 -95.8468 -95.8458 -95.8458 -95.3437 -95.3437 -95.3427 -95.3427
   -95.3261 -95.3261 -95.3213 -95.3213 -92.8657 -92.8657 -92.8636 -92.8636
   -84.2534 -84.2534 -84.2504 -84.2504 -84.2488 -84.2488 -84.2478 -84.2478
   -70.9016 -66.4284 -40.2868 -39.8559 -39.3707 -35.7343 -35.3064 -34.9779
   -27.1472 -27.1466 -27.1400 -27.1394 -27.1333 -27.1318 -27.1312 -27.1298
   -26.6292 -26.6287 -26.6276 -26.6271 -26.6069 -26.6068 -26.6026 -26.6025
   -25.6849 -25.6846 -25.6734 -25.6733 -25.6728 -25.6709 -25.6677 -25.6654
   -25.6634 -25.6630 -25.6621 -25.6614 -25.1626 -25.1621 -25.1618 -25.1613
   -25.1555 -25.1548 -25.1517 -25.1511 -25.1352 -25.1352 -25.1280 -25.1279
   -19.5353 -19.5353 -19.5299 -19.5298 -19.5284 -19.5284 -19.5275 -19.5274
   -18.2956 -18.2956 -18.2902 -18.2901 -18.2870 -18.2869 -18.2842 -18.2841
   -18.2836 -18.2836 -18.2833 -18.2832  -2.2302  -2.1707  -1.9491  -1.8919
    -0.8423  -0.7594  -0.3049  -0.2523   2.2945   2.3735   2.8791   2.9421
     6.4102   6.6803   6.9039   7.0802   7.1226   7.2771   7.4110   7.4548
     7.7149   7.7842   7.8623   7.9351   8.0391   8.1483   8.2010   8.2618
     8.3942   8.6612   8.9268   9.1519   9.3993   9.4622   9.6971   9.8147
     9.8704  10.0649  10.2537  10.3181  10.6624  11.1649

          k =-0.5439-0.9421 0.1693 ( 20934 PWs)   bands (ev):

  -148.6902-148.6902-148.6849-148.6849-148.1742-148.1742-148.1702-148.1702
  -133.8347-133.8346-133.8301-133.8301-105.5911-105.5911-105.5886-105.5886
  -105.0742-105.0742-105.0724-105.0724 -95.8584 -95.8584 -95.8518 -95.8518
   -95.8469 -95.8468 -95.8458 -95.8458 -95.3437 -95.3437 -95.3427 -95.3427
   -95.3261 -95.3261 -95.3213 -95.3213 -92.8658 -92.8658 -92.8636 -92.8636
   -84.2534 -84.2534 -84.2504 -84.2504 -84.2488 -84.2488 -84.2478 -84.2478
   -70.9017 -66.4286 -40.2870 -39.8559 -39.3709 -35.7345 -35.3064 -34.9782
   -27.1468 -27.1465 -27.1397 -27.1393 -27.1330 -27.1320 -27.1310 -27.1300
   -26.6291 -26.6287 -26.6275 -26.6271 -26.6068 -26.6066 -26.6025 -26.6023
   -25.6844 -25.6843 -25.6731 -25.6729 -25.6725 -25.6712 -25.6675 -25.6658
   -25.6631 -25.6628 -25.6618 -25.6613 -25.1624 -25.1620 -25.1616 -25.1612
   -25.1555 -25.1549 -25.1517 -25.1512 -25.1349 -25.1348 -25.1277 -25.1276
   -19.5351 -19.5349 -19.5301 -19.5299 -19.5282 -19.5282 -19.5275 -19.5274
   -18.2952 -18.2947 -18.2909 -18.2907 -18.2869 -18.2865 -18.2841 -18.2840
   -18.2839 -18.2837 -18.2825 -18.2823  -1.7590  -1.7005  -1.5008  -1.4436
    -0.5323  -0.4602  -0.1448  -0.0901   2.0435   2.1087   2.2582   2.3196
     5.9831   6.1087   6.2615   6.4070   6.4859   6.6069   6.8801   7.0000
     7.0851   7.3413   7.4289   7.5966   7.7039   7.8557   7.9096   7.9660
     8.1058   8.2045   8.4314   8.5066   8.7525   8.9221   8.9734   9.3897
     9.7230   9.8859   9.9570  10.1996  10.5863  11.4416

          k =-0.5439 2.1982-0.1129 ( 20942 PWs)   bands (ev):

  -148.6902-148.6902-148.6849-148.6849-148.1742-148.1742-148.1702-148.1702
  -133.8347-133.8347-133.8301-133.8301-105.5911-105.5911-105.5886-105.5886
  -105.0742-105.0742-105.0724-105.0724 -95.8584 -95.8584 -95.8518 -95.8518
   -95.8469 -95.8468 -95.8458 -95.8458 -95.3437 -95.3437 -95.3427 -95.3427
   -95.3261 -95.3261 -95.3213 -95.3213 -92.8658 -92.8658 -92.8636 -92.8636
   -84.2534 -84.2534 -84.2504 -84.2504 -84.2488 -84.2488 -84.2478 -84.2478
   -70.9018 -66.4287 -40.2871 -39.8559 -39.3711 -35.7347 -35.3064 -34.9784
   -27.1466 -27.1464 -27.1394 -27.1392 -27.1327 -27.1322 -27.1307 -27.1301
   -26.6290 -26.6288 -26.6274 -26.6272 -26.6065 -26.6065 -26.6023 -26.6022
   -25.6841 -25.6840 -25.6728 -25.6725 -25.6723 -25.6715 -25.6671 -25.6662
   -25.6629 -25.6626 -25.6615 -25.6611 -25.1622 -25.1620 -25.1614 -25.1612
   -25.1553 -25.1551 -25.1516 -25.1514 -25.1346 -25.1345 -25.1273 -25.1273
   -19.5349 -19.5344 -19.5303 -19.5299 -19.5281 -19.5281 -19.5273 -19.5272
   -18.2948 -18.2938 -18.2915 -18.2912 -18.2869 -18.2862 -18.2845 -18.2842
   -18.2837 -18.2836 -18.2817 -18.2813  -0.9862  -0.9289  -0.7942  -0.7381
    -0.2054  -0.1489  -0.0416   0.0161   1.3507   1.4051   1.4103   1.4673
     5.4424   5.5544   5.7933   5.9932   6.1946   6.2792   6.3592   6.4270
     6.7526   6.9125   7.0753   7.1865   7.4214   7.5324   7.6647   7.7515
     7.8585   7.9924   8.0370   8.1930   8.2889   8.5652   8.6184   9.1222
     9.3407   9.4570   9.5913  10.0639  10.4166  11.5114

          k =-0.5439 1.5701-0.0564 ( 20932 PWs)   bands (ev):

  -148.6902-148.6902-148.6849-148.6849-148.1742-148.1742-148.1702-148.1702
  -133.8347-133.8346-133.8301-133.8301-105.5911-105.5911-105.5886-105.5886
  -105.0742-105.0742-105.0724-105.0724 -95.8584 -95.8584 -95.8518 -95.8518
   -95.8469 -95.8468 -95.8458 -95.8458 -95.3437 -95.3437 -95.3427 -95.3427
   -95.3261 -95.3261 -95.3213 -95.3213 -92.8658 -92.8658 -92.8636 -92.8636
   -84.2534 -84.2534 -84.2504 -84.2504 -84.2488 -84.2488 -84.2478 -84.2478
   -70.9017 -66.4286 -40.2871 -39.8559 -39.3711 -35.7347 -35.3064 -34.9784
   -27.1466 -27.1464 -27.1394 -27.1392 -27.1327 -27.1321 -27.1307 -27.1301
   -26.6290 -26.6288 -26.6273 -26.6272 -26.6065 -26.6065 -26.6022 -26.6022
   -25.6841 -25.6840 -25.6728 -25.6725 -25.6722 -25.6714 -25.6672 -25.6662
   -25.6629 -25.6626 -25.6615 -25.6611 -25.1621 -25.1620 -25.1613 -25.1612
   -25.1553 -25.1551 -25.1516 -25.1514 -25.1346 -25.1345 -25.1273 -25.1273
   -19.5349 -19.5344 -19.5303 -19.5299 -19.5281 -19.5281 -19.5273 -19.5272
   -18.2948 -18.2938 -18.2915 -18.2912 -18.2869 -18.2861 -18.2845 -18.2842
   -18.2836 -18.2836 -18.2817 -18.2813  -0.9882  -0.9310  -0.7909  -0.7346
    -0.2058  -0.1498  -0.0430   0.0152   1.3453   1.4035   1.4136   1.4723
     5.4524   5.5873   5.8431   5.9823   6.1298   6.2780   6.3603   6.4157
     6.6995   6.8152   6.9989   7.2026   7.3940   7.5909   7.7073   7.7527
     7.8661   7.9931   8.1171   8.3267   8.4102   8.7117   8.8054   8.9774
     9.1282   9.2938   9.5938   9.8443  10.4474  11.4916

          k =-0.5439 0.9421 0.0000 ( 20926 PWs)   bands (ev):

  -148.6902-148.6902-148.6849-148.6849-148.1742-148.1742-148.1702-148.1702
  -133.8346-133.8346-133.8301-133.8301-105.5911-105.5911-105.5886-105.5886
  -105.0742-105.0742-105.0724-105.0724 -95.8584 -95.8584 -95.8518 -95.8518
   -95.8469 -95.8468 -95.8458 -95.8458 -95.3437 -95.3437 -95.3427 -95.3427
   -95.3261 -95.3261 -95.3213 -95.3213 -92.8658 -92.8658 -92.8636 -92.8636
   -84.2534 -84.2534 -84.2504 -84.2504 -84.2488 -84.2488 -84.2478 -84.2478
   -70.9016 -66.4285 -40.2869 -39.8559 -39.3709 -35.7345 -35.3064 -34.9782
   -27.1468 -27.1465 -27.1397 -27.1393 -27.1330 -27.1320 -27.1310 -27.1299
   -26.6291 -26.6287 -26.6275 -26.6271 -26.6068 -26.6066 -26.6025 -26.6023
   -25.6844 -25.6843 -25.6731 -25.6729 -25.6725 -25.6711 -25.6675 -25.6658
   -25.6631 -25.6628 -25.6618 -25.6612 -25.1624 -25.1621 -25.1616 -25.1613
   -25.1554 -25.1549 -25.1517 -25.1512 -25.1349 -25.1348 -25.1276 -25.1275
   -19.5351 -19.5348 -19.5301 -19.5299 -19.5282 -19.5281 -19.5275 -19.5274
   -18.2952 -18.2946 -18.2909 -18.2907 -18.2869 -18.2865 -18.2841 -18.2840
   -18.2839 -18.2837 -18.2825 -18.2823  -1.7640  -1.7052  -1.4905  -1.4340
    -0.5559  -0.4831  -0.1233  -0.0690   2.0280   2.0940   2.2702   2.3310
     5.9698   6.0934   6.3035   6.3699   6.5122   6.5911   6.8476   7.0004
     7.0806   7.4026   7.4427   7.5930   7.7501   7.8888   7.9529   8.0290
     8.1448   8.1647   8.3879   8.4164   8.6791   8.8282   8.8812   9.4330
     9.7429   9.9096  10.0363  10.2963  10.5420  11.4035

          k =-1.0878-0.6281 0.2258 ( 20974 PWs)   bands (ev):

  -148.6902-148.6902-148.6849-148.6849-148.1742-148.1742-148.1702-148.1702
  -133.8347-133.8347-133.8301-133.8301-105.5911-105.5911-105.5886-105.5886
  -105.0742-105.0742-105.0724-105.0724 -95.8584 -95.8584 -95.8518 -95.8518
   -95.8469 -95.8468 -95.8458 -95.8458 -95.3437 -95.3437 -95.3427 -95.3427
   -95.3261 -95.3261 -95.3213 -95.3213 -92.8658 -92.8658 -92.8636 -92.8636
   -84.2534 -84.2534 -84.2504 -84.2504 -84.2488 -84.2488 -84.2478 -84.2478
   -70.9021 -66.4289 -40.2870 -39.8559 -39.3710 -35.7345 -35.3064 -34.9782
   -27.1469 -27.1465 -27.1397 -27.1394 -27.1330 -27.1321 -27.1310 -27.1300
   -26.6291 -26.6288 -26.6275 -26.6272 -26.6068 -26.6066 -26.6025 -26.6023
   -25.6844 -25.6843 -25.6731 -25.6728 -25.6726 -25.6713 -25.6675 -25.6659
   -25.6631 -25.6628 -25.6618 -25.6612 -25.1624 -25.1621 -25.1616 -25.1613
   -25.1555 -25.1550 -25.1517 -25.1513 -25.1349 -25.1348 -25.1276 -25.1275
   -19.5349 -19.5349 -19.5301 -19.5300 -19.5283 -19.5283 -19.5274 -19.5274
   -18.2949 -18.2949 -18.2910 -18.2910 -18.2868 -18.2867 -18.2841 -18.2841
   -18.2839 -18.2838 -18.2820 -18.2819  -1.5406  -1.4829  -1.3095  -1.2515
    -0.3973  -0.3323  -0.1404  -0.0825   1.8601   1.9213   1.9814   2.0432
     5.5975   5.6867   6.0236   6.2238   6.2447   6.5275   7.1531   7.2797
     7.3379   7.3821   7.4947   7.6005   7.7158   7.7444   7.8105   7.8440
     7.8746   8.0164   8.1707   8.4744   8.5661   8.8703   9.0577   9.1274
     9.3432   9.7016   9.8262  10.0869  10.2639  11.3102

          k =-1.0878 2.5122-0.0564 ( 20949 PWs)   bands (ev):

  -148.6902-148.6902-148.6849-148.6849-148.1742-148.1742-148.1702-148.1702
  -133.8347-133.8347-133.8301-133.8301-105.5911-105.5911-105.5886-105.5886
  -105.0742-105.0742-105.0724-105.0724 -95.8584 -95.8584 -95.8518 -95.8518
   -95.8469 -95.8468 -95.8458 -95.8458 -95.3437 -95.3437 -95.3427 -95.3427
   -95.3261 -95.3261 -95.3213 -95.3213 -92.8658 -92.8658 -92.8636 -92.8636
   -84.2534 -84.2534 -84.2504 -84.2504 -84.2488 -84.2488 -84.2478 -84.2478
   -70.9019 -66.4287 -40.2871 -39.8559 -39.3711 -35.7347 -35.3064 -34.9784
   -27.1466 -27.1464 -27.1394 -27.1392 -27.1327 -27.1322 -27.1307 -27.1302
   -26.6290 -26.6288 -26.6274 -26.6272 -26.6065 -26.6065 -26.6022 -26.6022
   -25.6841 -25.6840 -25.6728 -25.6725 -25.6723 -25.6715 -25.6672 -25.6663
   -25.6629 -25.6626 -25.6615 -25.6612 -25.1622 -25.1620 -25.1614 -25.1612
   -25.1553 -25.1551 -25.1516 -25.1514 -25.1346 -25.1345 -25.1273 -25.1273
   -19.5349 -19.5344 -19.5303 -19.5299 -19.5282 -19.5281 -19.5274 -19.5272
   -18.2948 -18.2938 -18.2915 -18.2912 -18.2870 -18.2862 -18.2845 -18.2842
   -18.2837 -18.2836 -18.2817 -18.2813  -0.9816  -0.9247  -0.8033  -0.7466
    -0.1833  -0.1277  -0.0593  -0.0010   1.3356   1.3961   1.4226   1.4800
     5.5051   5.6288   5.7258   5.8830   6.0838   6.2739   6.4631   6.5452
     6.6794   6.7852   7.0090   7.2960   7.3851   7.5569   7.7401   7.7754
     7.9326   7.9615   8.1240   8.1872   8.3430   8.6703   8.7462   8.9310
     9.2425   9.3383   9.6474   9.8289  10.2787  11.5335

          k =-1.0878 1.8842-0.0000 ( 20962 PWs)   bands (ev):

  -148.6902-148.6902-148.6849-148.6849-148.1742-148.1742-148.1702-148.1702
  -133.8347-133.8347-133.8301-133.8301-105.5911-105.5911-105.5886-105.5886
  -105.0742-105.0742-105.0724-105.0724 -95.8584 -95.8584 -95.8518 -95.8518
   -95.8469 -95.8469 -95.8458 -95.8458 -95.3437 -95.3437 -95.3427 -95.3427
   -95.3261 -95.3261 -95.3213 -95.3213 -92.8658 -92.8658 -92.8636 -92.8636
   -84.2534 -84.2534 -84.2504 -84.2504 -84.2488 -84.2488 -84.2478 -84.2478
   -70.9020 -66.4289 -40.2872 -39.8559 -39.3711 -35.7348 -35.3064 -34.9785
   -27.1465 -27.1464 -27.1394 -27.1392 -27.1325 -27.1324 -27.1304 -27.1303
   -26.6289 -26.6289 -26.6273 -26.6273 -26.6065 -26.6065 -26.6022 -26.6022
   -25.6840 -25.6839 -25.6728 -25.6722 -25.6721 -25.6719 -25.6668 -25.6666
   -25.6629 -25.6625 -25.6614 -25.6611 -25.1621 -25.1620 -25.1613 -25.1612
   -25.1553 -25.1552 -25.1515 -25.1515 -25.1345 -25.1345 -25.1272 -25.1272
   -19.5349 -19.5341 -19.5305 -19.5299 -19.5281 -19.5279 -19.5275 -19.5272
   -18.2946 -18.2929 -18.2918 -18.2913 -18.2871 -18.2858 -18.2850 -18.2844
   -18.2834 -18.2832 -18.2819 -18.2813  -0.5240  -0.5090  -0.4675  -0.4524
     0.0038   0.0083   0.0574   0.0619   0.9423   0.9822   1.0004   1.0404
     5.6107   5.6687   5.7087   5.7686   5.9636   6.1015   6.2015   6.2680
     6.3074   6.4586   6.5240   6.6404   7.3554   7.5604   7.6475   7.7274
     7.8247   7.8911   7.9247   8.1757   8.3551   8.4229   8.6263   8.8023
     8.8515   9.1575   9.5594   9.9920  10.4090  11.6018

          k = 1.6317 0.9421-0.3387 ( 20964 PWs)   bands (ev):

  -148.6902-148.6902-148.6849-148.6849-148.1742-148.1742-148.1702-148.1702
  -133.8347-133.8347-133.8301-133.8301-105.5911-105.5911-105.5886-105.5886
  -105.0742-105.0742-105.0724-105.0724 -95.8584 -95.8584 -95.8518 -95.8518
   -95.8469 -95.8468 -95.8458 -95.8458 -95.3437 -95.3437 -95.3427 -95.3427
   -95.3261 -95.3261 -95.3213 -95.3213 -92.8658 -92.8658 -92.8636 -92.8636
   -84.2534 -84.2534 -84.2504 -84.2504 -84.2488 -84.2488 -84.2478 -84.2478
   -70.9020 -66.4289 -40.2871 -39.8559 -39.3711 -35.7347 -35.3064 -34.9784
   -27.1467 -27.1464 -27.1396 -27.1392 -27.1328 -27.1321 -27.1307 -27.1301
   -26.6289 -26.6289 -26.6273 -26.6273 -26.6067 -26.6065 -26.6024 -26.6022
   -25.6842 -25.6840 -25.6727 -25.6726 -25.6726 -25.6713 -25.6672 -25.6661
   -25.6629 -25.6627 -25.6615 -25.6611 -25.1621 -25.1621 -25.1613 -25.1613
   -25.1552 -25.1552 -25.1515 -25.1515 -25.1347 -25.1345 -25.1274 -25.1272
   -19.5347 -19.5347 -19.5301 -19.5301 -19.5283 -19.5283 -19.5272 -19.5272
   -18.2946 -18.2946 -18.2914 -18.2913 -18.2867 -18.2867 -18.2841 -18.2841
   -18.2838 -18.2838 -18.2811 -18.2811  -0.8863  -0.8296  -0.7484  -0.6923
    -0.2617  -0.2126  -0.1619  -0.0969   1.2953   1.3518   1.3990   1.4637
     5.2173   5.3771   5.6020   5.6968   6.3213   6.6730   6.7031   6.7521
     7.0837   7.2464   7.2532   7.2925   7.4043   7.7171   7.7891   7.9012
     7.9593   8.0376   8.0408   8.0690   8.7095   8.7479   8.7821   8.9816
     9.0780   9.0999   9.3058   9.7983  10.2891  11.2005

          k = 0.0000 0.0000 0.1693 ( 20889 PWs)   bands (ev):

  -148.6902-148.6902-148.6849-148.6849-148.1742-148.1742-148.1702-148.1702
  -133.8346-133.8346-133.8301-133.8301-105.5911-105.5911-105.5886-105.5886
  -105.0742-105.0742-105.0724-105.0724 -95.8584 -95.8584 -95.8518 -95.8518
   -95.8469 -95.8468 -95.8458 -95.8458 -95.3437 -95.3437 -95.3427 -95.3427
   -95.3261 -95.3260 -95.3213 -95.3212 -92.8657 -92.8657 -92.8636 -92.8636
   -84.2534 -84.2534 -84.2504 -84.2504 -84.2488 -84.2488 -84.2478 -84.2478
   -70.9012 -66.4280 -40.2867 -39.8560 -39.3706 -35.7341 -35.3065 -34.9778
   -27.1473 -27.1465 -27.1401 -27.1393 -27.1335 -27.1317 -27.1315 -27.1296
   -26.6292 -26.6287 -26.6276 -26.6271 -26.6069 -26.6069 -26.6026 -26.6026
   -25.6850 -25.6847 -25.6736 -25.6735 -25.6728 -25.6706 -25.6680 -25.6650
   -25.6636 -25.6629 -25.6624 -25.6613 -25.1626 -25.1622 -25.1618 -25.1614
   -25.1555 -25.1548 -25.1517 -25.1510 -25.1354 -25.1352 -25.1281 -25.1280
   -19.5355 -19.5355 -19.5298 -19.5296 -19.5286 -19.5285 -19.5274 -19.5273
   -18.2960 -18.2960 -18.2898 -18.2897 -18.2872 -18.2870 -18.2843 -18.2842
   -18.2841 -18.2840 -18.2831 -18.2830  -2.4735  -2.4139  -2.1970  -2.1391
    -1.0021  -0.9140  -0.4383  -0.3866   2.3546   2.4431   3.1745   3.2363
     6.5377   6.9009   7.2521   7.2669   7.7877   7.7998   7.8753   8.1148
     8.2324   8.3431   8.3874   8.6559   8.7227   8.8827   8.8857   8.9044
     9.0160   9.0422   9.1480   9.1756   9.3261   9.6569   9.6952  10.0597
    10.1142  10.1998  10.5203  10.6925  10.7567  10.8389

          k = 0.0000-0.6281 0.2258 ( 20930 PWs)   bands (ev):

  -148.6902-148.6902-148.6849-148.6849-148.1742-148.1742-148.1702-148.1702
  -133.8347-133.8346-133.8301-133.8301-105.5911-105.5911-105.5886-105.5886
  -105.0742-105.0742-105.0724-105.0724 -95.8584 -95.8584 -95.8518 -95.8518
   -95.8469 -95.8468 -95.8458 -95.8458 -95.3437 -95.3437 -95.3427 -95.3427
   -95.3261 -95.3261 -95.3213 -95.3213 -92.8657 -92.8657 -92.8636 -92.8636
   -84.2534 -84.2534 -84.2504 -84.2504 -84.2488 -84.2488 -84.2478 -84.2478
   -70.9016 -66.4285 -40.2868 -39.8559 -39.3707 -35.7343 -35.3064 -34.9779
   -27.1472 -27.1466 -27.1400 -27.1395 -27.1333 -27.1318 -27.1312 -27.1298
   -26.6292 -26.6287 -26.6276 -26.6271 -26.6070 -26.6068 -26.6027 -26.6025
   -25.6849 -25.6847 -25.6734 -25.6733 -25.6728 -25.6709 -25.6677 -25.6654
   -25.6634 -25.6629 -25.6621 -25.6614 -25.1626 -25.1621 -25.1618 -25.1613
   -25.1555 -25.1548 -25.1517 -25.1511 -25.1353 -25.1352 -25.1280 -25.1279
   -19.5354 -19.5353 -19.5299 -19.5298 -19.5285 -19.5284 -19.5275 -19.5274
   -18.2956 -18.2956 -18.2902 -18.2901 -18.2870 -18.2870 -18.2842 -18.2842
   -18.2836 -18.2836 -18.2832 -18.2832  -2.2233  -2.1643  -1.9627  -1.9044
    -0.8085  -0.7262  -0.3390  -0.2860   2.3266   2.4046   2.8557   2.9187
     6.3842   6.6833   6.8715   6.9540   6.9854   7.2589   7.5516   7.5856
     7.7069   7.8187   7.9170   7.9903   8.0879   8.2400   8.2943   8.3331
     8.4030   8.7528   8.9335   9.0227   9.1025   9.3354   9.6164   9.6295
     9.9465  10.0213  10.0670  10.3948  10.7640  11.5282

          k =-0.0000 2.5122-0.0564 ( 20953 PWs)   bands (ev):

  -148.6902-148.6902-148.6849-148.6849-148.1742-148.1742-148.1702-148.1702
  -133.8347-133.8346-133.8301-133.8301-105.5911-105.5911-105.5886-105.5886
  -105.0742-105.0742-105.0724-105.0724 -95.8584 -95.8584 -95.8518 -95.8518
   -95.8469 -95.8468 -95.8458 -95.8458 -95.3437 -95.3437 -95.3427 -95.3427
   -95.3261 -95.3261 -95.3213 -95.3213 -92.8658 -92.8658 -92.8636 -92.8636
   -84.2534 -84.2534 -84.2504 -84.2504 -84.2488 -84.2488 -84.2478 -84.2478
   -70.9019 -66.4287 -40.2870 -39.8559 -39.3710 -35.7345 -35.3064 -34.9782
   -27.1468 -27.1465 -27.1397 -27.1393 -27.1330 -27.1320 -27.1309 -27.1299
   -26.6291 -26.6287 -26.6275 -26.6271 -26.6067 -26.6067 -26.6024 -26.6024
   -25.6844 -25.6843 -25.6731 -25.6728 -25.6725 -25.6712 -25.6674 -25.6659
   -25.6630 -25.6627 -25.6617 -25.6612 -25.1623 -25.1620 -25.1615 -25.1612
   -25.1554 -25.1550 -25.1517 -25.1513 -25.1349 -25.1348 -25.1276 -25.1275
   -19.5350 -19.5349 -19.5300 -19.5300 -19.5283 -19.5282 -19.5273 -19.5273
   -18.2949 -18.2948 -18.2910 -18.2910 -18.2867 -18.2867 -18.2841 -18.2841
   -18.2838 -18.2838 -18.2819 -18.2819  -1.5412  -1.4831  -1.3073  -1.2502
    -0.4166  -0.3487  -0.1178  -0.0629   1.8161   1.8796   2.0186   2.0796
     5.6272   5.7451   6.0568   6.1672   6.2894   6.6123   6.9670   7.0699
     7.1687   7.3640   7.5206   7.5748   7.6506   7.7451   7.7676   7.8442
     7.8673   8.1507   8.5260   8.7467   8.7713   8.9776   9.0870   9.1729
     9.2202   9.4043   9.6448   9.9416  10.2360  11.3083

          k =-0.0000 1.8842-0.0000 ( 20975 PWs)   bands (ev):

  -148.6902-148.6902-148.6849-148.6849-148.1742-148.1742-148.1702-148.1702
  -133.8347-133.8347-133.8301-133.8301-105.5911-105.5911-105.5886-105.5886
  -105.0742-105.0742-105.0724-105.0724 -95.8584 -95.8584 -95.8518 -95.8518
   -95.8469 -95.8468 -95.8458 -95.8458 -95.3437 -95.3437 -95.3427 -95.3427
   -95.3261 -95.3261 -95.3213 -95.3213 -92.8658 -92.8658 -92.8636 -92.8636
   -84.2534 -84.2534 -84.2504 -84.2504 -84.2488 -84.2488 -84.2478 -84.2478
   -70.9021 -66.4290 -40.2871 -39.8559 -39.3711 -35.7347 -35.3064 -34.9784
   -27.1467 -27.1464 -27.1395 -27.1393 -27.1327 -27.1322 -27.1307 -27.1301
   -26.6290 -26.6289 -26.6273 -26.6273 -26.6066 -26.6065 -26.6024 -26.6022
   -25.6841 -25.6841 -25.6727 -25.6727 -25.6725 -25.6714 -25.6672 -25.6662
   -25.6628 -25.6627 -25.6615 -25.6611 -25.1622 -25.1621 -25.1614 -25.1613
   -25.1553 -25.1552 -25.1515 -25.1515 -25.1347 -25.1346 -25.1274 -25.1273
   -19.5347 -19.5347 -19.5301 -19.5301 -19.5283 -19.5283 -19.5272 -19.5272
   -18.2947 -18.2946 -18.2914 -18.2914 -18.2867 -18.2867 -18.2842 -18.2841
   -18.2838 -18.2838 -18.2812 -18.2811  -0.8869  -0.8301  -0.7483  -0.6922
    -0.2580  -0.2090  -0.1645  -0.0997   1.2735   1.3367   1.4214   1.4792
     5.2518   5.3580   5.5113   5.7092   6.2840   6.5228   6.9852   7.0366
     7.0824   7.2257   7.3314   7.4442   7.5009   7.5738   7.6101   7.6979
     7.8159   7.8989   7.9569   8.1512   8.2460   8.7598   8.9254   8.9648
     9.0806   9.4609   9.6650   9.9950  10.1327  11.1212

          k =-0.0000 1.2561 0.0564 ( 20974 PWs)   bands (ev):

  -148.6902-148.6902-148.6849-148.6849-148.1742-148.1742-148.1702-148.1702
  -133.8347-133.8347-133.8301-133.8301-105.5911-105.5911-105.5886-105.5886
  -105.0742-105.0742-105.0724-105.0724 -95.8584 -95.8584 -95.8518 -95.8518
   -95.8469 -95.8468 -95.8458 -95.8458 -95.3437 -95.3437 -95.3427 -95.3427
   -95.3261 -95.3261 -95.3213 -95.3213 -92.8658 -92.8658 -92.8636 -92.8636
   -84.2534 -84.2534 -84.2504 -84.2504 -84.2488 -84.2488 -84.2478 -84.2478
   -70.9021 -66.4290 -40.2870 -39.8559 -39.3710 -35.7345 -35.3064 -34.9782
   -27.1469 -27.1465 -27.1397 -27.1394 -27.1330 -27.1320 -27.1309 -27.1300
   -26.6291 -26.6288 -26.6275 -26.6272 -26.6068 -26.6067 -26.6025 -26.6024
   -25.6844 -25.6843 -25.6731 -25.6728 -25.6726 -25.6712 -25.6675 -25.6659
   -25.6631 -25.6628 -25.6618 -25.6612 -25.1624 -25.1621 -25.1616 -25.1613
   -25.1554 -25.1550 -25.1517 -25.1513 -25.1349 -25.1349 -25.1276 -25.1276
   -19.5350 -19.5349 -19.5301 -19.5300 -19.5283 -19.5282 -19.5274 -19.5273
   -18.2949 -18.2949 -18.2910 -18.2910 -18.2868 -18.2867 -18.2841 -18.2841
   -18.2839 -18.2838 -18.2820 -18.2819  -1.5486  -1.4904  -1.2933  -1.2365
    -0.4376  -0.3711  -0.1049  -0.0480   1.8550   1.9131   1.9815   2.0469
     5.6672   5.7557   5.9550   6.1352   6.1937   6.5052   7.1378   7.2940
     7.3500   7.4082   7.5319   7.5483   7.7322   7.7800   7.8200   7.9254
     7.9418   8.0234   8.1292   8.4620   8.6168   8.7927   9.0380   9.1751
     9.2859   9.7526   9.9075   9.9422  10.1617  11.2703

          k =-0.5439-0.3140 0.2822 ( 20932 PWs)   bands (ev):

  -148.6902-148.6902-148.6849-148.6849-148.1742-148.1742-148.1702-148.1702
  -133.8347-133.8346-133.8301-133.8301-105.5911-105.5911-105.5886-105.5886
  -105.0742-105.0742-105.0724-105.0724 -95.8584 -95.8584 -95.8518 -95.8518
   -95.8469 -95.8468 -95.8458 -95.8458 -95.3437 -95.3437 -95.3427 -95.3427
   -95.3261 -95.3261 -95.3213 -95.3213 -92.8657 -92.8657 -92.8636 -92.8636
   -84.2534 -84.2534 -84.2504 -84.2504 -84.2488 -84.2488 -84.2478 -84.2478
   -70.9016 -66.4285 -40.2868 -39.8559 -39.3707 -35.7343 -35.3064 -34.9779
   -27.1472 -27.1466 -27.1400 -27.1395 -27.1333 -27.1318 -27.1312 -27.1298
   -26.6292 -26.6287 -26.6276 -26.6271 -26.6070 -26.6068 -26.6027 -26.6025
   -25.6849 -25.6847 -25.6734 -25.6733 -25.6728 -25.6709 -25.6678 -25.6654
   -25.6634 -25.6629 -25.6622 -25.6614 -25.1626 -25.1621 -25.1618 -25.1613
   -25.1555 -25.1548 -25.1518 -25.1511 -25.1353 -25.1352 -25.1280 -25.1279
   -19.5354 -19.5353 -19.5298 -19.5298 -19.5284 -19.5284 -19.5274 -19.5274
   -18.2956 -18.2956 -18.2902 -18.2902 -18.2870 -18.2870 -18.2842 -18.2842
   -18.2836 -18.2836 -18.2833 -18.2832  -2.2181  -2.1596  -1.9725  -1.9133
    -0.7790  -0.6976  -0.3703  -0.3163   2.3894   2.4611   2.7898   2.8601
     6.4138   6.6828   6.8867   7.0606   7.0769   7.2709   7.4948   7.5371
     7.7297   7.8042   7.8346   7.9584   8.0359   8.1139   8.1696   8.2773
     8.4360   8.6761   8.8306   9.1031   9.4217   9.4806   9.6245   9.7874
     9.8541  10.1722  10.3502  10.4071  10.5317  11.0809

          k =-0.5439 2.8263 0.0000 ( 20924 PWs)   bands (ev):

  -148.6902-148.6902-148.6849-148.6849-148.1742-148.1742-148.1702-148.1702
  -133.8347-133.8346-133.8301-133.8301-105.5911-105.5911-105.5886-105.5886
  -105.0742-105.0742-105.0724-105.0724 -95.8584 -95.8584 -95.8518 -95.8518
   -95.8469 -95.8468 -95.8458 -95.8458 -95.3437 -95.3437 -95.3427 -95.3427
   -95.3261 -95.3261 -95.3213 -95.3213 -92.8658 -92.8657 -92.8636 -92.8636
   -84.2534 -84.2534 -84.2504 -84.2504 -84.2488 -84.2488 -84.2478 -84.2478
   -70.9016 -66.4285 -40.2870 -39.8559 -39.3709 -35.7345 -35.3064 -34.9782
   -27.1468 -27.1465 -27.1397 -27.1393 -27.1331 -27.1319 -27.1310 -27.1299
   -26.6291 -26.6287 -26.6275 -26.6271 -26.6068 -26.6066 -26.6025 -26.6023
   -25.6844 -25.6843 -25.6731 -25.6729 -25.6725 -25.6711 -25.6675 -25.6657
   -25.6631 -25.6627 -25.6618 -25.6612 -25.1624 -25.1620 -25.1616 -25.1612
   -25.1554 -25.1549 -25.1517 -25.1512 -25.1349 -25.1348 -25.1276 -25.1276
   -19.5351 -19.5349 -19.5301 -19.5299 -19.5282 -19.5282 -19.5275 -19.5274
   -18.2952 -18.2946 -18.2909 -18.2907 -18.2869 -18.2865 -18.2841 -18.2840
   -18.2839 -18.2837 -18.2825 -18.2823  -1.7478  -1.6900  -1.5222  -1.4635
    -0.4762  -0.4050  -0.1972  -0.1418   2.0813   2.1444   2.2274   2.2903
     6.0204   6.1470   6.1865   6.4116   6.4946   6.6560   6.8898   6.9844
     7.1172   7.2870   7.3751   7.5593   7.6324   7.7911   7.8158   7.9293
     8.0864   8.2168   8.5541   8.6307   8.9044   9.0938   9.1635   9.3332
     9.6386   9.7933   9.8674   9.9985  10.6339  11.5070

          k =-0.5439 2.1982 0.0564 ( 20946 PWs)   bands (ev):

  -148.6902-148.6902-148.6849-148.6849-148.1742-148.1742-148.1702-148.1702
  -133.8347-133.8346-133.8301-133.8301-105.5911-105.5911-105.5886-105.5886
  -105.0742-105.0742-105.0724-105.0724 -95.8584 -95.8584 -95.8518 -95.8518
   -95.8469 -95.8468 -95.8458 -95.8458 -95.3437 -95.3437 -95.3427 -95.3427
   -95.3261 -95.3261 -95.3213 -95.3213 -92.8658 -92.8658 -92.8636 -92.8636
   -84.2534 -84.2534 -84.2504 -84.2504 -84.2488 -84.2488 -84.2478 -84.2478
   -70.9019 -66.4287 -40.2871 -39.8559 -39.3711 -35.7347 -35.3064 -34.9784
   -27.1466 -27.1464 -27.1394 -27.1392 -27.1327 -27.1322 -27.1307 -27.1301
   -26.6290 -26.6288 -26.6274 -26.6272 -26.6066 -26.6065 -26.6023 -26.6022
   -25.6841 -25.6840 -25.6728 -25.6725 -25.6723 -25.6715 -25.6671 -25.6662
   -25.6629 -25.6626 -25.6615 -25.6611 -25.1622 -25.1620 -25.1614 -25.1612
   -25.1553 -25.1551 -25.1516 -25.1514 -25.1346 -25.1345 -25.1273 -25.1273
   -19.5349 -19.5344 -19.5303 -19.5299 -19.5281 -19.5281 -19.5274 -19.5272
   -18.2948 -18.2938 -18.2915 -18.2912 -18.2870 -18.2862 -18.2845 -18.2842
   -18.2837 -18.2836 -18.2817 -18.2813  -0.9817  -0.9245  -0.8023  -0.7460
    -0.1947  -0.1380  -0.0483   0.0091   1.3473   1.4047   1.4110   1.4695
     5.4602   5.5529   5.7250   5.9507   6.1883   6.3252   6.3718   6.4592
     6.7849   6.9772   7.1199   7.2434   7.4288   7.5760   7.6292   7.7334
     7.7862   7.9522   7.9929   8.1163   8.2141   8.4504   8.6596   9.1145
     9.4322   9.5457   9.6196  10.1757  10.3045  11.5324

          k =-0.5439 1.5701 0.1129 ( 20938 PWs)   bands (ev):

  -148.6902-148.6902-148.6849-148.6849-148.1742-148.1742-148.1702-148.1702
  -133.8347-133.8346-133.8301-133.8301-105.5911-105.5911-105.5886-105.5886
  -105.0742-105.0742-105.0724-105.0724 -95.8584 -95.8584 -95.8518 -95.8518
   -95.8469 -95.8468 -95.8458 -95.8458 -95.3437 -95.3437 -95.3427 -95.3427
   -95.3261 -95.3261 -95.3213 -95.3213 -92.8658 -92.8658 -92.8636 -92.8636
   -84.2534 -84.2534 -84.2504 -84.2504 -84.2488 -84.2488 -84.2478 -84.2478
   -70.9018 -66.4286 -40.2871 -39.8559 -39.3711 -35.7347 -35.3064 -34.9784
   -27.1466 -27.1463 -27.1394 -27.1392 -27.1327 -27.1321 -27.1307 -27.1301
   -26.6290 -26.6288 -26.6273 -26.6272 -26.6065 -26.6065 -26.6022 -26.6022
   -25.6841 -25.6839 -25.6728 -25.6725 -25.6722 -25.6715 -25.6672 -25.6662
   -25.6629 -25.6626 -25.6615 -25.6611 -25.1621 -25.1620 -25.1614 -25.1612
   -25.1553 -25.1551 -25.1516 -25.1514 -25.1346 -25.1345 -25.1273 -25.1273
   -19.5349 -19.5344 -19.5303 -19.5299 -19.5281 -19.5281 -19.5273 -19.5272
   -18.2948 -18.2938 -18.2915 -18.2912 -18.2869 -18.2862 -18.2845 -18.2842
   -18.2837 -18.2836 -18.2817 -18.2813  -0.9861  -0.9290  -0.7953  -0.7387
    -0.1953  -0.1398  -0.0512   0.0072   1.3381   1.3980   1.4206   1.4784
     5.4801   5.6282   5.8132   5.9191   6.0682   6.2720   6.4126   6.5044
     6.6624   6.7463   6.9699   7.2698   7.3409   7.5980   7.7438   7.7886
     7.8625   7.9779   8.1850   8.4212   8.4605   8.6771   8.8196   8.8920
     9.1112   9.2649   9.5889   9.7342  10.3371  11.5137

          k = 2.1757 1.2561-0.2822 ( 20950 PWs)   bands (ev):

  -148.6902-148.6902-148.6849-148.6849-148.1742-148.1742-148.1702-148.1702
  -133.8347-133.8346-133.8301-133.8301-105.5911-105.5911-105.5886-105.5886
  -105.0742-105.0742-105.0724-105.0724 -95.8584 -95.8584 -95.8518 -95.8518
   -95.8469 -95.8468 -95.8458 -95.8458 -95.3437 -95.3437 -95.3427 -95.3427
   -95.3261 -95.3261 -95.3213 -95.3213 -92.8658 -92.8658 -92.8636 -92.8636
   -84.2534 -84.2534 -84.2504 -84.2504 -84.2488 -84.2488 -84.2478 -84.2478
   -70.9019 -66.4287 -40.2870 -39.8559 -39.3710 -35.7345 -35.3064 -34.9782
   -27.1469 -27.1465 -27.1397 -27.1393 -27.1330 -27.1320 -27.1309 -27.1300
   -26.6291 -26.6288 -26.6275 -26.6272 -26.6067 -26.6066 -26.6024 -26.6023
   -25.6844 -25.6842 -25.6731 -25.6728 -25.6725 -25.6712 -25.6674 -25.6659
   -25.6630 -25.6627 -25.6617 -25.6612 -25.1623 -25.1620 -25.1615 -25.1612
   -25.1554 -25.1550 -25.1517 -25.1513 -25.1348 -25.1348 -25.1276 -25.1275
   -19.5349 -19.5349 -19.5300 -19.5300 -19.5282 -19.5282 -19.5273 -19.5273
   -18.2949 -18.2948 -18.2910 -18.2910 -18.2867 -18.2867 -18.2841 -18.2841
   -18.2838 -18.2838 -18.2819 -18.2819  -1.5319  -1.4747  -1.3252  -1.2665
    -0.3576  -0.2922  -0.1739  -0.1169   1.8401   1.9052   2.0030   2.0613
     5.5611   5.6582   6.0783   6.2801   6.3267   6.6005   7.0876   7.1728
     7.1901   7.3374   7.4738   7.5767   7.6731   7.7043   7.7842   7.8405
     7.8745   8.0089   8.3619   8.6192   8.6910   8.9385   9.0685   9.1449
     9.3624   9.4716   9.6318  10.2514  10.3462  11.3250

          k = 2.1757 0.6281-0.2258 ( 20941 PWs)   bands (ev):

  -148.6902-148.6902-148.6849-148.6849-148.1742-148.1742-148.1702-148.1702
  -133.8347-133.8346-133.8301-133.8301-105.5911-105.5911-105.5886-105.5886
  -105.0742-105.0742-105.0724-105.0724 -95.8584 -95.8584 -95.8518 -95.8518
   -95.8469 -95.8468 -95.8458 -95.8458 -95.3437 -95.3437 -95.3427 -95.3427
   -95.3261 -95.3261 -95.3213 -95.3213 -92.8658 -92.8658 -92.8636 -92.8636
   -84.2534 -84.2534 -84.2504 -84.2504 -84.2488 -84.2488 -84.2478 -84.2478
   -70.9018 -66.4287 -40.2871 -39.8559 -39.3711 -35.7347 -35.3064 -34.9784
   -27.1466 -27.1464 -27.1394 -27.1392 -27.1327 -27.1322 -27.1307 -27.1301
   -26.6290 -26.6288 -26.6273 -26.6272 -26.6065 -26.6065 -26.6022 -26.6022
   -25.6841 -25.6840 -25.6728 -25.6725 -25.6723 -25.6715 -25.6672 -25.6662
   -25.6629 -25.6626 -25.6615 -25.6611 -25.1621 -25.1620 -25.1614 -25.1612
   -25.1553 -25.1551 -25.1516 -25.1514 -25.1346 -25.1345 -25.1273 -25.1273
   -19.5349 -19.5344 -19.5303 -19.5299 -19.5281 -19.5281 -19.5273 -19.5272
   -18.2948 -18.2938 -18.2915 -18.2912 -18.2869 -18.2862 -18.2845 -18.2842
   -18.2837 -18.2836 -18.2817 -18.2813  -0.9793  -0.9223  -0.8069  -0.7503
    -0.1832  -0.1269  -0.0577  -0.0000   1.3396   1.3993   1.4180   1.4760
     5.4961   5.5855   5.6874   5.9045   6.1394   6.3178   6.4034   6.5131
     6.7482   6.9205   7.0812   7.2821   7.4575   7.5805   7.6922   7.7372
     7.8415   7.9344   8.0170   8.0446   8.2265   8.5388   8.7726   9.0057
     9.3544   9.4413   9.6885  10.0580  10.2707  11.5390

          k = 2.1757-0.0000-0.1693 ( 20938 PWs)   bands (ev):

  -148.6902-148.6902-148.6849-148.6849-148.1742-148.1742-148.1702-148.1702
  -133.8347-133.8346-133.8301-133.8301-105.5911-105.5911-105.5886-105.5886
  -105.0742-105.0742-105.0724-105.0724 -95.8584 -95.8584 -95.8518 -95.8518
   -95.8469 -95.8469 -95.8458 -95.8458 -95.3437 -95.3437 -95.3427 -95.3427
   -95.3261 -95.3261 -95.3213 -95.3213 -92.8658 -92.8658 -92.8636 -92.8636
   -84.2534 -84.2534 -84.2504 -84.2504 -84.2488 -84.2488 -84.2478 -84.2478
   -70.9018 -66.4287 -40.2871 -39.8559 -39.3711 -35.7348 -35.3064 -34.9785
   -27.1465 -27.1463 -27.1393 -27.1392 -27.1325 -27.1324 -27.1304 -27.1303
   -26.6289 -26.6288 -26.6273 -26.6272 -26.6065 -26.6064 -26.6022 -26.6021
   -25.6839 -25.6838 -25.6727 -25.6722 -25.6721 -25.6719 -25.6668 -25.6666
   -25.6629 -25.6625 -25.6614 -25.6611 -25.1621 -25.1620 -25.1613 -25.1612
   -25.1553 -25.1552 -25.1515 -25.1514 -25.1345 -25.1344 -25.1272 -25.1271
   -19.5349 -19.5341 -19.5305 -19.5299 -19.5281 -19.5279 -19.5275 -19.5271
   -18.2946 -18.2929 -18.2918 -18.2912 -18.2871 -18.2858 -18.2850 -18.2844
   -18.2834 -18.2832 -18.2818 -18.2812  -0.5240  -0.5090  -0.4675  -0.4524
     0.0039   0.0083   0.0574   0.0619   0.9423   0.9822   1.0004   1.0404
     5.6118   5.6667   5.7093   5.7676   5.9741   6.0817   6.2380   6.2492
     6.2867   6.4869   6.5280   6.6197   7.3597   7.5535   7.6545   7.7516
     7.7974   7.9036   7.9358   8.1202   8.3241   8.5266   8.7022   8.7429
     8.7654   9.1975   9.5467  10.0172  10.3835  11.5975

          k = 1.6317 0.9421-0.1693 ( 20987 PWs)   bands (ev):

  -148.6902-148.6902-148.6849-148.6849-148.1742-148.1742-148.1702-148.1702
  -133.8347-133.8347-133.8301-133.8301-105.5911-105.5911-105.5886-105.5886
  -105.0742-105.0742-105.0724-105.0724 -95.8584 -95.8584 -95.8518 -95.8518
   -95.8469 -95.8468 -95.8458 -95.8458 -95.3437 -95.3437 -95.3427 -95.3427
   -95.3261 -95.3261 -95.3213 -95.3213 -92.8658 -92.8658 -92.8636 -92.8636
   -84.2534 -84.2534 -84.2504 -84.2504 -84.2488 -84.2488 -84.2478 -84.2478
   -70.9022 -66.4291 -40.2871 -39.8559 -39.3711 -35.7347 -35.3064 -34.9784
   -27.1467 -27.1465 -27.1396 -27.1393 -27.1327 -27.1322 -27.1307 -27.1301
   -26.6289 -26.6289 -26.6273 -26.6273 -26.6067 -26.6066 -26.6024 -26.6023
   -25.6842 -25.6841 -25.6727 -25.6727 -25.6726 -25.6714 -25.6672 -25.6662
   -25.6629 -25.6627 -25.6615 -25.6611 -25.1621 -25.1621 -25.1613 -25.1613
   -25.1553 -25.1552 -25.1515 -25.1515 -25.1347 -25.1346 -25.1275 -25.1273
   -19.5348 -19.5347 -19.5301 -19.5301 -19.5283 -19.5283 -19.5272 -19.5271
   -18.2947 -18.2946 -18.2914 -18.2913 -18.2867 -18.2867 -18.2842 -18.2841
   -18.2838 -18.2838 -18.2812 -18.2811  -0.8865  -0.8298  -0.7484  -0.6923
    -0.2605  -0.2115  -0.1627  -0.0978   1.2871   1.3463   1.4074   1.4693
     5.2264   5.3697   5.5747   5.7036   6.2967   6.5702   6.8077   6.9084
     7.0567   7.2486   7.2895   7.3317   7.4190   7.6660   7.7676   7.7951
     7.8950   7.9049   8.0341   8.2272   8.5311   8.6826   8.8597   8.9670
     9.0912   9.1764   9.4813   9.8976  10.2365  11.1953

          k = 0.0000 0.0000 0.3387 ( 20844 PWs)   bands (ev):

  -148.6902-148.6902-148.6849-148.6849-148.1742-148.1742-148.1702-148.1702
  -133.8346-133.8346-133.8301-133.8301-105.5911-105.5911-105.5886-105.5886
  -105.0742-105.0742-105.0724-105.0724 -95.8584 -95.8584 -95.8518 -95.8518
   -95.8469 -95.8468 -95.8458 -95.8458 -95.3437 -95.3437 -95.3427 -95.3427
   -95.3261 -95.3260 -95.3213 -95.3212 -92.8657 -92.8657 -92.8636 -92.8636
   -84.2534 -84.2534 -84.2504 -84.2504 -84.2488 -84.2488 -84.2478 -84.2478
   -70.9008 -66.4276 -40.2867 -39.8559 -39.3706 -35.7341 -35.3065 -34.9777
   -27.1471 -27.1465 -27.1400 -27.1394 -27.1333 -27.1317 -27.1313 -27.1297
   -26.6291 -26.6287 -26.6276 -26.6271 -26.6069 -26.6068 -26.6026 -26.6025
   -25.6849 -25.6847 -25.6735 -25.6733 -25.6728 -25.6706 -25.6678 -25.6650
   -25.6635 -25.6630 -25.6623 -25.6614 -25.1626 -25.1621 -25.1618 -25.1613
   -25.1554 -25.1547 -25.1517 -25.1509 -25.1353 -25.1352 -25.1280 -25.1280
   -19.5355 -19.5354 -19.5297 -19.5296 -19.5285 -19.5285 -19.5274 -19.5272
   -18.2960 -18.2959 -18.2897 -18.2896 -18.2871 -18.2870 -18.2843 -18.2842
   -18.2840 -18.2839 -18.2830 -18.2829  -2.4592  -2.4009  -2.2236  -2.1632
    -0.9242  -0.8373  -0.5222  -0.4689   2.5036   2.5798   3.0111   3.0883
     6.6707   7.0339   7.2677   7.2995   7.7909   7.8016   7.8030   7.9138
     8.1351   8.3988   8.4268   8.5819   8.6013   8.8779   8.8884   8.9057
     8.9948   9.0279   9.2035   9.2241   9.3678   9.7852   9.8004  10.0774
    10.0832  10.1623  10.5668  10.5747  10.6479  10.9095

          k =-0.0000 3.1403 0.0564 ( 20913 PWs)   bands (ev):

  -148.6902-148.6902-148.6849-148.6849-148.1742-148.1742-148.1702-148.1702
  -133.8346-133.8346-133.8301-133.8301-105.5911-105.5911-105.5886-105.5886
  -105.0742-105.0742-105.0724-105.0724 -95.8584 -95.8584 -95.8518 -95.8518
   -95.8469 -95.8468 -95.8458 -95.8458 -95.3437 -95.3437 -95.3427 -95.3427
   -95.3261 -95.3261 -95.3213 -95.3213 -92.8657 -92.8657 -92.8636 -92.8636
   -84.2534 -84.2534 -84.2504 -84.2504 -84.2488 -84.2488 -84.2478 -84.2478
   -70.9015 -66.4283 -40.2868 -39.8559 -39.3707 -35.7343 -35.3064 -34.9779
   -27.1471 -27.1466 -27.1400 -27.1394 -27.1333 -27.1318 -27.1312 -27.1297
   -26.6292 -26.6287 -26.6276 -26.6271 -26.6070 -26.6068 -26.6027 -26.6025
   -25.6849 -25.6847 -25.6734 -25.6733 -25.6728 -25.6708 -25.6677 -25.6654
   -25.6634 -25.6629 -25.6621 -25.6613 -25.1626 -25.1621 -25.1618 -25.1613
   -25.1555 -25.1548 -25.1517 -25.1510 -25.1353 -25.1352 -25.1280 -25.1279
   -19.5353 -19.5353 -19.5298 -19.5298 -19.5284 -19.5284 -19.5274 -19.5274
   -18.2956 -18.2956 -18.2901 -18.2901 -18.2870 -18.2869 -18.2842 -18.2841
   -18.2836 -18.2836 -18.2832 -18.2832  -2.2100  -2.1521  -1.9870  -1.9266
    -0.7337  -0.6521  -0.4161  -0.3623   2.4362   2.5055   2.7514   2.8233
     6.3875   6.6861   6.8645   6.9328   6.9749   7.2611   7.5935   7.6260
     7.7179   7.8253   7.9206   8.0054   8.1276   8.2212   8.2742   8.3394
     8.4580   8.7558   8.8026   8.9689   9.1446   9.2573   9.6035   9.6872
     9.8292  10.1651  10.1937  10.3930  10.6606  11.3917

          k =-0.0000 2.5122 0.1129 ( 20948 PWs)   bands (ev):

  -148.6902-148.6902-148.6849-148.6849-148.1742-148.1742-148.1702-148.1702
  -133.8347-133.8347-133.8301-133.8301-105.5911-105.5911-105.5886-105.5886
  -105.0742-105.0742-105.0724-105.0724 -95.8584 -95.8584 -95.8518 -95.8518
   -95.8469 -95.8468 -95.8458 -95.8458 -95.3437 -95.3437 -95.3427 -95.3427
   -95.3261 -95.3261 -95.3213 -95.3213 -92.8658 -92.8658 -92.8636 -92.8636
   -84.2534 -84.2534 -84.2504 -84.2504 -84.2488 -84.2488 -84.2478 -84.2478
   -70.9018 -66.4287 -40.2870 -39.8559 -39.3710 -35.7345 -35.3064 -34.9782
   -27.1468 -27.1465 -27.1397 -27.1393 -27.1330 -27.1320 -27.1309 -27.1299
   -26.6290 -26.6288 -26.6274 -26.6272 -26.6067 -26.6067 -26.6024 -26.6024
   -25.6844 -25.6843 -25.6731 -25.6728 -25.6725 -25.6712 -25.6674 -25.6659
   -25.6630 -25.6627 -25.6617 -25.6611 -25.1623 -25.1620 -25.1615 -25.1613
   -25.1554 -25.1550 -25.1516 -25.1513 -25.1349 -25.1348 -25.1276 -25.1275
   -19.5349 -19.5349 -19.5300 -19.5300 -19.5283 -19.5282 -19.5273 -19.5273
   -18.2949 -18.2948 -18.2910 -18.2910 -18.2867 -18.2867 -18.2841 -18.2841
   -18.2838 -18.2838 -18.2819 -18.2819  -1.5322  -1.4748  -1.3241  -1.2659
    -0.3713  -0.3040  -0.1586  -0.1035   1.8203   1.8858   2.0194   2.0779
     5.5736   5.6813   6.1007   6.2668   6.3537   6.6553   6.9406   7.0258
     7.1864   7.3254   7.4771   7.5733   7.6351   7.7388   7.8118   7.8188
     7.8768   8.0223   8.5091   8.7459   8.8337   8.9978   9.1080   9.2013
     9.2716   9.3588   9.4599  10.1521  10.3387  11.3186

          k = 2.7196 1.5701-0.2258 ( 20924 PWs)   bands (ev):

  -148.6902-148.6902-148.6849-148.6849-148.1742-148.1742-148.1702-148.1702
  -133.8346-133.8346-133.8301-133.8301-105.5911-105.5911-105.5886-105.5886
  -105.0742-105.0742-105.0724-105.0724 -95.8584 -95.8584 -95.8518 -95.8518
   -95.8469 -95.8468 -95.8458 -95.8458 -95.3437 -95.3437 -95.3427 -95.3427
   -95.3261 -95.3261 -95.3213 -95.3213 -92.8657 -92.8657 -92.8636 -92.8636
   -84.2534 -84.2534 -84.2504 -84.2504 -84.2488 -84.2488 -84.2478 -84.2478
   -70.9016 -66.4284 -40.2868 -39.8559 -39.3707 -35.7343 -35.3064 -34.9779
   -27.1472 -27.1466 -27.1400 -27.1394 -27.1333 -27.1318 -27.1313 -27.1298
   -26.6292 -26.6287 -26.6276 -26.6271 -26.6070 -26.6068 -26.6027 -26.6025
   -25.6849 -25.6847 -25.6734 -25.6733 -25.6728 -25.6708 -25.6678 -25.6654
   -25.6634 -25.6629 -25.6622 -25.6613 -25.1626 -25.1621 -25.1618 -25.1613
   -25.1555 -25.1548 -25.1518 -25.1510 -25.1353 -25.1352 -25.1280 -25.1279
   -19.5353 -19.5353 -19.5298 -19.5298 -19.5284 -19.5284 -19.5274 -19.5274
   -18.2956 -18.2956 -18.2902 -18.2901 -18.2870 -18.2870 -18.2842 -18.2842
   -18.2836 -18.2836 -18.2833 -18.2832  -2.2069  -2.1494  -1.9922  -1.9313
    -0.7123  -0.6306  -0.4384  -0.3846   2.4925   2.5529   2.6937   2.7747
     6.4024   6.6852   6.8748   6.9785   7.0051   7.2632   7.5969   7.6064
     7.7240   7.8081   7.9240   8.0129   8.0956   8.1114   8.1741   8.3147
     8.4674   8.6914   8.7497   9.0886   9.2764   9.3590   9.6482   9.6930
     9.8026  10.2199  10.3499  10.4230  10.5061  11.2182

          k = 2.7196 0.9421-0.1693 ( 20930 PWs)   bands (ev):

  -148.6902-148.6902-148.6849-148.6849-148.1742-148.1742-148.1702-148.1702
  -133.8347-133.8346-133.8301-133.8301-105.5911-105.5911-105.5886-105.5886
  -105.0742-105.0742-105.0724-105.0724 -95.8584 -95.8584 -95.8518 -95.8518
   -95.8469 -95.8468 -95.8458 -95.8458 -95.3437 -95.3437 -95.3427 -95.3427
   -95.3261 -95.3261 -95.3213 -95.3213 -92.8658 -92.8658 -92.8636 -92.8636
   -84.2534 -84.2534 -84.2504 -84.2504 -84.2488 -84.2488 -84.2478 -84.2478
   -70.9017 -66.4285 -40.2870 -39.8559 -39.3709 -35.7345 -35.3064 -34.9782
   -27.1469 -27.1465 -27.1397 -27.1393 -27.1331 -27.1319 -27.1310 -27.1299
   -26.6291 -26.6288 -26.6275 -26.6272 -26.6068 -26.6067 -26.6025 -26.6023
   -25.6844 -25.6843 -25.6731 -25.6729 -25.6725 -25.6711 -25.6675 -25.6657
   -25.6631 -25.6628 -25.6618 -25.6612 -25.1624 -25.1621 -25.1616 -25.1613
   -25.1554 -25.1550 -25.1517 -25.1512 -25.1349 -25.1349 -25.1276 -25.1276
   -19.5351 -19.5349 -19.5301 -19.5299 -19.5282 -19.5282 -19.5275 -19.5274
   -18.2952 -18.2947 -18.2909 -18.2907 -18.2869 -18.2865 -18.2841 -18.2840
   -18.2839 -18.2837 -18.2825 -18.2823  -1.7415  -1.6842  -1.5334  -1.4739
    -0.4388  -0.3676  -0.2327  -0.1776   2.1086   2.1692   2.2039   2.2684
     6.0561   6.1353   6.1736   6.3739   6.5496   6.6891   6.8349   6.9907
     7.1484   7.2644   7.3757   7.4858   7.6333   7.7220   7.8039   7.9228
     8.0781   8.2282   8.6102   8.6875   8.9877   9.1686   9.2798   9.3286
     9.5940   9.6962   9.8194   9.9144  10.6328  11.5375

          k =-0.0000 0.0000-0.5080 ( 20832 PWs)   bands (ev):

  -148.6902-148.6902-148.6849-148.6849-148.1742-148.1742-148.1702-148.1702
  -133.8346-133.8346-133.8301-133.8301-105.5911-105.5911-105.5886-105.5886
  -105.0742-105.0742-105.0724-105.0724 -95.8584 -95.8584 -95.8518 -95.8518
   -95.8469 -95.8468 -95.8458 -95.8458 -95.3437 -95.3437 -95.3427 -95.3427
   -95.3261 -95.3260 -95.3213 -95.3212 -92.8657 -92.8657 -92.8636 -92.8636
   -84.2534 -84.2534 -84.2504 -84.2504 -84.2488 -84.2488 -84.2478 -84.2478
   -70.9007 -66.4275 -40.2867 -39.8559 -39.3706 -35.7341 -35.3065 -34.9777
   -27.1472 -27.1465 -27.1400 -27.1393 -27.1333 -27.1316 -27.1313 -27.1296
   -26.6291 -26.6286 -26.6275 -26.6270 -26.6068 -26.6068 -26.6025 -26.6025
   -25.6850 -25.6847 -25.6735 -25.6733 -25.6728 -25.6706 -25.6678 -25.6650
   -25.6634 -25.6629 -25.6623 -25.6613 -25.1626 -25.1620 -25.1618 -25.1613
   -25.1554 -25.1547 -25.1516 -25.1509 -25.1353 -25.1352 -25.1280 -25.1279
   -19.5354 -19.5354 -19.5297 -19.5296 -19.5285 -19.5285 -19.5273 -19.5272
   -18.2960 -18.2960 -18.2897 -18.2897 -18.2871 -18.2870 -18.2842 -18.2841
   -18.2840 -18.2840 -18.2830 -18.2829  -2.4509  -2.3934  -2.2378  -2.1760
    -0.8712  -0.7833  -0.5782  -0.5257   2.6350   2.6915   2.8729   2.9711
     6.7482   7.0943   7.2677   7.3756   7.7434   7.7686   7.7910   7.8030
     8.1044   8.4236   8.4546   8.5313   8.5557   8.8746   8.9059   8.9322
     8.9579   9.0334   9.2110   9.2234   9.3870   9.8677   9.8679  10.0612
    10.0804  10.1435  10.4997  10.6001  10.6007  10.9510

     highest occupied, lowest unoccupied level (ev):    10.7907   10.8338

!    total energy              =   -3476.90638164 Ry
     estimated scf accuracy    <          4.9E-14 Ry

     The total energy is the sum of the following terms:
     one-electron contribution =   -2530.80044835 Ry
     hartree contribution      =    1207.06607695 Ry
     xc contribution           =    -467.75635778 Ry
     ewald contribution        =   -1685.41565245 Ry

     total magnetization       =    -0.00     0.00     4.99 Bohr mag/cell
     absolute magnetization    =     5.02 Bohr mag/cell

     convergence has been achieved in  23 iterations

     Writing all to output data dir /gpfs/work4/0/prjs0822/MST/out/MST.save/

     init_run     :     93.37s CPU     51.50s WALL (       1 calls)
     electrons    :   3160.17s CPU   1672.67s WALL (       1 calls)

     Called by init_run:
     wfcinit      :     91.95s CPU     50.31s WALL (       1 calls)
     potinit      :      0.46s CPU      0.25s WALL (       1 calls)
     hinit0       :      0.91s CPU      0.87s WALL (       1 calls)

     Called by electrons:
     c_bands      :   2677.22s CPU   1422.21s WALL (      23 calls)
     sum_band     :    476.14s CPU    246.70s WALL (      23 calls)
     v_of_rho     :      5.89s CPU      3.16s WALL (      24 calls)
     mix_rho      :      0.73s CPU      0.41s WALL (      23 calls)

     Called by c_bands:
     init_us_2    :      1.69s CPU      0.88s WALL (    1504 calls)
     init_us_2:cp :      1.67s CPU      0.87s WALL (    1504 calls)
     cegterg      :   2664.22s CPU   1415.42s WALL (     736 calls)

     Called by *egterg:
     cdiaghg      :    305.02s CPU    171.98s WALL (    7912 calls)
     h_psi        :   2250.65s CPU   1184.86s WALL (    7944 calls)
     g_psi        :      0.43s CPU      0.24s WALL (    7176 calls)

     Called by h_psi:
     h_psi:calbec :     59.24s CPU     32.30s WALL (    7944 calls)
     vloc_psi     :   2165.68s CPU   1136.16s WALL (    7944 calls)
     add_vuspsi   :     24.34s CPU     15.63s WALL (    7944 calls)

     General routines
     calbec       :     59.20s CPU     32.27s WALL (    7944 calls)
     fft          :      3.48s CPU      2.29s WALL (     594 calls)
     ffts         :      0.35s CPU      0.20s WALL (      92 calls)
     fftw         :   2251.12s CPU   1183.52s WALL ( 1362548 calls)

     Parallel routines

     PWSCF        :  54m21.50s CPU  28m54.56s WALL


   This run was terminated on:   1:17:39   9Dec2023            

=------------------------------------------------------------------------------=
   JOB DONE.
=------------------------------------------------------------------------------=
